       N       E                     dE             d eps       ncg     rms          rms(c)
DAV:   1     0.677891920479E+04    0.67789E+04   -0.16015E+05  2480   0.205E+03
DAV:   2     0.155589098302E+04   -0.52230E+04   -0.46599E+04  2272   0.597E+02
DAV:   3    -0.763595681090E+02   -0.16323E+04   -0.14188E+04  2456   0.291E+02
DAV:   4    -0.558388817781E+03   -0.48203E+03   -0.43255E+03  2768   0.137E+02
DAV:   5    -0.594486526054E+03   -0.36098E+02   -0.35789E+02  3824   0.543E+01    0.121E+02
DAV:   6    -0.440887857993E+03    0.15360E+03   -0.87382E+02  3112   0.806E+01    0.134E+02
DAV:   7    -0.459036696083E+03   -0.18149E+02   -0.12634E+02  3672   0.370E+01    0.900E+01
DAV:   8    -0.476779779628E+03   -0.17743E+02   -0.34943E+01  3960   0.179E+01    0.239E+01
DAV:   9    -0.487763059155E+03   -0.10983E+02   -0.15035E+01  3600   0.103E+01    0.962E+00
DAV:  10    -0.490282432296E+03   -0.25194E+01   -0.45729E+00  4264   0.521E+00    0.746E+00
DAV:  11    -0.492019495527E+03   -0.17371E+01   -0.18531E+00  3800   0.306E+00    0.426E+00
DAV:  12    -0.492961780904E+03   -0.94229E+00   -0.12824E+00  3592   0.217E+00    0.202E+00
DAV:  13    -0.493129865044E+03   -0.16808E+00   -0.38138E-01  3952   0.131E+00    0.138E+00
DAV:  14    -0.493150969616E+03   -0.21105E-01   -0.86214E-02  4264   0.708E-01    0.806E-01
DAV:  15    -0.493157553567E+03   -0.65840E-02   -0.21169E-02  3824   0.366E-01    0.444E-01
DAV:  16    -0.493159291303E+03   -0.17377E-02   -0.47447E-03  4432   0.195E-01    0.214E-01
DAV:  17    -0.493159322323E+03   -0.31020E-04   -0.99334E-04  3984   0.105E-01    0.125E-01
DAV:  18    -0.493159372175E+03   -0.49852E-04   -0.27003E-04  4224   0.473E-02    0.602E-02
DAV:  19    -0.493159380183E+03   -0.80073E-05   -0.38417E-05  2384   0.258E-02
   1 F= -.49315938E+03 E0= -.49315938E+03  d E =-.493159E+03  mag=     0.0062
       N       E                     dE             d eps       ncg     rms          rms(c)
DAV:   1    -0.491835727394E+03    0.13236E+01   -0.81162E+01  2272   0.269E+01    0.484E+00
DAV:   2    -0.493318425946E+03   -0.14827E+01   -0.15580E+01  3504   0.114E+01    0.309E+00
DAV:   3    -0.493374815785E+03   -0.56390E-01   -0.81052E-01  3936   0.266E+00    0.209E+00
DAV:   4    -0.493379478267E+03   -0.46625E-02   -0.14130E-01  4216   0.101E+00    0.189E+00
DAV:   5    -0.493378197149E+03    0.12811E-02   -0.29726E-02  3632   0.431E-01    0.109E+00
DAV:   6    -0.493376912133E+03    0.12850E-02   -0.10797E-02  3488   0.349E-01    0.354E-01
DAV:   7    -0.493377261626E+03   -0.34949E-03   -0.48557E-03  4168   0.202E-01    0.306E-01
DAV:   8    -0.493377347943E+03   -0.86317E-04   -0.84007E-04  4408   0.756E-02    0.248E-01
DAV:   9    -0.493377323581E+03    0.24362E-04   -0.27427E-04  3536   0.585E-02    0.106E-01
DAV:  10    -0.493377324685E+03   -0.11047E-05   -0.10642E-04  3344   0.343E-02    0.573E-02
DAV:  11    -0.493377323641E+03    0.10443E-05   -0.16224E-05  1888   0.180E-02
   2 F= -.49337732E+03 E0= -.49337732E+03  d E =-.217943E+00  mag=     0.0000
       N       E                     dE             d eps       ncg     rms          rms(c)
DAV:   1    -0.493366348894E+03    0.10976E-01   -0.72847E-01  2368   0.266E+00    0.403E-01
DAV:   2    -0.493379497033E+03   -0.13148E-01   -0.13736E-01  3432   0.103E+00    0.299E-01
DAV:   3    -0.493379788358E+03   -0.29133E-03   -0.52054E-03  3928   0.249E-01    0.193E-01
DAV:   4    -0.493379754452E+03    0.33906E-04   -0.56076E-04  3864   0.929E-02    0.187E-01
DAV:   5    -0.493379726945E+03    0.27507E-04   -0.10958E-04  3336   0.408E-02    0.116E-01
DAV:   6    -0.493379704807E+03    0.22138E-04   -0.86137E-05  2832   0.379E-02    0.342E-02
DAV:   7    -0.493379706699E+03   -0.18917E-05   -0.30186E-05  2168   0.225E-02
   3 F= -.49337971E+03 E0= -.49337971E+03  d E =-.220327E+00  mag=     0.0000
       N       E                     dE             d eps       ncg     rms          rms(c)
DAV:   1    -0.493375116723E+03    0.45881E-02   -0.21220E-01  2368   0.146E+00    0.210E-01
DAV:   2    -0.493378955655E+03   -0.38389E-02   -0.40141E-02  3504   0.561E-01    0.158E-01
DAV:   3    -0.493379014824E+03   -0.59169E-04   -0.12589E-03  3824   0.129E-01    0.107E-01
DAV:   4    -0.493379005507E+03    0.93165E-05   -0.15934E-04  3560   0.468E-02    0.101E-01
DAV:   5    -0.493378994949E+03    0.10558E-04   -0.28354E-05  2352   0.243E-02    0.602E-02
DAV:   6    -0.493378989818E+03    0.51312E-05   -0.28322E-05  2000   0.233E-02
   4 F= -.49337899E+03 E0= -.49337899E+03  d E =-.219610E+00  mag=     0.0000
       N       E                     dE             d eps       ncg     rms          rms(c)
DAV:   1    -0.493003733177E+03    0.37526E+00   -0.46147E+01  2272   0.189E+01    0.378E+00
DAV:   2    -0.493471905933E+03   -0.46817E+00   -0.52908E+00  3656   0.733E+00    0.284E+00
DAV:   3    -0.493494014563E+03   -0.22109E-01   -0.39815E-01  3792   0.210E+00    0.136E+00
DAV:   4    -0.493495080293E+03   -0.10657E-02   -0.76872E-02  4200   0.873E-01    0.136E+00
DAV:   5    -0.493493758820E+03    0.13215E-02   -0.17829E-02  3928   0.338E-01    0.881E-01
DAV:   6    -0.493492168503E+03    0.15903E-02   -0.72906E-03  3304   0.333E-01    0.316E-01
DAV:   7    -0.493492364705E+03   -0.19620E-03   -0.38849E-03  3592   0.194E-01    0.212E-01
DAV:   8    -0.493492422071E+03   -0.57365E-04   -0.81516E-04  4448   0.910E-02    0.162E-01
DAV:   9    -0.493492412421E+03    0.96493E-05   -0.13616E-04  3704   0.380E-02    0.116E-01
DAV:  10    -0.493492404251E+03    0.81703E-05   -0.46624E-05  2560   0.288E-02
   5 F= -.49349240E+03 E0= -.49349240E+03  d E =-.113414E+00  mag=     0.0000
       N       E                     dE             d eps       ncg     rms          rms(c)
DAV:   1    -0.493490578872E+03    0.18335E-02   -0.19484E-01  2400   0.122E+00    0.254E-01
DAV:   2    -0.493492543950E+03   -0.19651E-02   -0.22041E-02  3616   0.487E-01    0.183E-01
DAV:   3    -0.493492585297E+03   -0.41347E-04   -0.11545E-03  3696   0.133E-01    0.842E-02
DAV:   4    -0.493492575703E+03    0.95933E-05   -0.18154E-04  3856   0.531E-02    0.805E-02
DAV:   5    -0.493492566479E+03    0.92242E-05   -0.29502E-05  2440   0.232E-02
   6 F= -.49349257E+03 E0= -.49349257E+03  d E =-.113577E+00  mag=     0.0000
       N       E                     dE             d eps       ncg     rms          rms(c)
DAV:   1    -0.493491649746E+03    0.92596E-03   -0.94695E-02  2368   0.842E-01    0.166E-01
DAV:   2    -0.493492566323E+03   -0.91658E-03   -0.10233E-02  3592   0.331E-01    0.125E-01
DAV:   3    -0.493492579903E+03   -0.13580E-04   -0.53590E-04  3520   0.928E-02    0.647E-02
DAV:   4    -0.493492572489E+03    0.74139E-05   -0.66473E-05  3048   0.352E-02
   7 F= -.49349257E+03 E0= -.49349257E+03  d E =-.113583E+00  mag=     0.0000
       N       E                     dE             d eps       ncg     rms          rms(c)
DAV:   1    -0.493267140021E+03    0.22544E+00   -0.34096E+01  2272   0.141E+01    0.259E+00
DAV:   2    -0.493534638005E+03   -0.26750E+00   -0.29287E+00  3680   0.521E+00    0.183E+00
DAV:   3    -0.493556629005E+03   -0.21991E-01   -0.27299E-01  4136   0.145E+00    0.936E-01
DAV:   4    -0.493560785502E+03   -0.41565E-02   -0.66201E-02  4176   0.660E-01    0.931E-01
DAV:   5    -0.493561223379E+03   -0.43788E-03   -0.16532E-02  4016   0.290E-01    0.616E-01
DAV:   6    -0.493560558122E+03    0.66526E-03   -0.44948E-03  3392   0.208E-01    0.237E-01
DAV:   7    -0.493560647381E+03   -0.89259E-04   -0.16391E-03  3824   0.125E-01    0.139E-01
DAV:   8    -0.493560685191E+03   -0.37811E-04   -0.42612E-04  4392   0.605E-02    0.956E-02
DAV:   9    -0.493560678650E+03    0.65419E-05   -0.10245E-04  3280   0.332E-02    0.610E-02
DAV:  10    -0.493560676065E+03    0.25842E-05   -0.26152E-05  1928   0.237E-02
   8 F= -.49356068E+03 E0= -.49356068E+03  d E =-.681036E-01  mag=    -0.0000
       N       E                     dE             d eps       ncg     rms          rms(c)
DAV:   1    -0.493558127411E+03    0.25512E-02   -0.42213E-01  2368   0.155E+00    0.271E-01
DAV:   2    -0.493561417707E+03   -0.32903E-02   -0.35063E-02  3704   0.605E-01    0.199E-01
DAV:   3    -0.493561523176E+03   -0.10547E-03   -0.17228E-03  4120   0.154E-01    0.105E-01
DAV:   4    -0.493561517141E+03    0.60342E-05   -0.27047E-04  3952   0.651E-02    0.108E-01
DAV:   5    -0.493561510528E+03    0.66133E-05   -0.58484E-05  3016   0.284E-02
   9 F= -.49356151E+03 E0= -.49356151E+03  d E =-.689380E-01  mag=     0.0000
       N       E                     dE             d eps       ncg     rms          rms(c)
DAV:   1    -0.493394271900E+03    0.16725E+00   -0.27476E+01  2272   0.125E+01    0.209E+00
DAV:   2    -0.493592269860E+03   -0.19800E+00   -0.21516E+00  3704   0.451E+00    0.141E+00
DAV:   3    -0.493608851340E+03   -0.16581E-01   -0.21054E-01  4104   0.124E+00    0.786E-01
DAV:   4    -0.493612100046E+03   -0.32487E-02   -0.49954E-02  4048   0.523E-01    0.716E-01
DAV:   5    -0.493612258589E+03   -0.15854E-03   -0.12882E-02  3936   0.246E-01    0.432E-01
DAV:   6    -0.493611841106E+03    0.41748E-03   -0.37302E-03  3560   0.183E-01    0.170E-01
DAV:   7    -0.493611957246E+03   -0.11614E-03   -0.13992E-03  3768   0.111E-01    0.124E-01
DAV:   8    -0.493611992676E+03   -0.35430E-04   -0.36023E-04  4344   0.537E-02    0.971E-02
DAV:   9    -0.493611983960E+03    0.87158E-05   -0.10443E-04  2888   0.336E-02    0.589E-02
DAV:  10    -0.493611983820E+03    0.14044E-06   -0.29553E-05  1736   0.224E-02
  10 F= -.49361198E+03 E0= -.49361198E+03  d E =-.504733E-01  mag=    -0.0000
       N       E                     dE             d eps       ncg     rms          rms(c)
DAV:   1    -0.493584766655E+03    0.27217E-01   -0.47147E+00  2288   0.511E+00    0.826E-01
DAV:   2    -0.493615945263E+03   -0.31179E-01   -0.33326E-01  3696   0.184E+00    0.575E-01
DAV:   3    -0.493617299583E+03   -0.13543E-02   -0.20966E-02  4244   0.491E-01    0.332E-01
DAV:   4    -0.493617344883E+03   -0.45300E-04   -0.36805E-03  3960   0.187E-01    0.303E-01
DAV:   5    -0.493617283517E+03    0.61365E-04   -0.99710E-04  3984   0.924E-02    0.180E-01
DAV:   6    -0.493617220239E+03    0.63278E-04   -0.41303E-04  3416   0.757E-02    0.676E-02
DAV:   7    -0.493617237928E+03   -0.17689E-04   -0.19971E-04  3696   0.458E-02    0.528E-02
DAV:   8    -0.493617240600E+03   -0.26711E-05   -0.22529E-05  1808   0.207E-02
  11 F= -.49361724E+03 E0= -.49361724E+03  d E =-.557301E-01  mag=     0.0000
       N       E                     dE             d eps       ncg     rms          rms(c)
DAV:   1    -0.493369512168E+03    0.24773E+00   -0.29655E+01  2272   0.138E+01    0.223E+00
DAV:   2    -0.493628219874E+03   -0.25871E+00   -0.27805E+00  3680   0.522E+00    0.143E+00
DAV:   3    -0.493647084476E+03   -0.18865E-01   -0.23829E-01  4304   0.139E+00    0.880E-01
DAV:   4    -0.493649841924E+03   -0.27574E-02   -0.51304E-02  4072   0.581E-01    0.807E-01
DAV:   5    -0.493650175871E+03   -0.33395E-03   -0.12820E-02  3928   0.257E-01    0.532E-01
DAV:   6    -0.493649345999E+03    0.82987E-03   -0.40648E-03  3408   0.213E-01    0.219E-01
DAV:   7    -0.493649427776E+03   -0.81777E-04   -0.17727E-03  3544   0.126E-01    0.123E-01
DAV:   8    -0.493649475531E+03   -0.47755E-04   -0.47257E-04  4400   0.637E-02    0.103E-01
DAV:   9    -0.493649476243E+03   -0.71210E-06   -0.70715E-05  2640   0.276E-02
  12 F= -.49364948E+03 E0= -.49364948E+03  d E =-.322356E-01  mag=    -0.0000
       N       E                     dE             d eps       ncg     rms          rms(c)
DAV:   1    -0.493649445104E+03    0.30428E-04   -0.84341E-04  2760   0.773E-02    0.395E-02
DAV:   2    -0.493649452090E+03   -0.69865E-05   -0.10002E-04  2728   0.314E-02    0.190E-02
DAV:   3    -0.493649452207E+03   -0.11689E-06   -0.12908E-05  1896   0.209E-02
  13 F= -.49364945E+03 E0= -.49364945E+03  d E =-.322116E-01  mag=    -0.0000
       N       E                     dE             d eps       ncg     rms          rms(c)
DAV:   1    -0.493649463145E+03   -0.11055E-04   -0.79374E-04  2560   0.730E-02    0.154E-02
DAV:   2    -0.493649471968E+03   -0.88231E-05   -0.93621E-05  2320   0.274E-02
  14 F= -.49364947E+03 E0= -.49364947E+03  d E =-.322314E-01  mag=    -0.0000
