<?xml version="1.0" encoding="ISO-8859-1"?>
<modeling>
 <generator>
  <i name="program" type="string">vasp </i>
  <i name="version" type="string">5.4.4.18Apr17-6-g9f103f2a35  </i>
  <i name="subversion" type="string">(build Apr 20 2021 13:31:29) complex            parallel </i>
  <i name="platform" type="string">LinuxIFC </i>
  <i name="date" type="string">2021 06 28 </i>
  <i name="time" type="string">09:12:02 </i>
 </generator>
 <incar>
  <i type="string" name="PREC">accurate</i>
  <i type="logical" name="ADDGRID"> T  </i>
  <i type="int" name="ISPIN">     2</i>
  <i type="int" name="NELM">  2000</i>
  <i type="int" name="IBRION">     8</i>
  <i name="EDIFF">      0.00001000</i>
  <i name="ENCUT">    424.27950000</i>
  <i type="logical" name="LREAL"> F  </i>
  <i type="int" name="ISMEAR">    -5</i>
  <i name="SIGMA">      0.05000000</i>
  <i type="logical" name="LWAVE"> F  </i>
  <i type="logical" name="LCHARG"> F  </i>
  <v type="int" name="KPOINT_BSE">    -1     0     0     0</v>
  <i type="int" name="NELM">  2000</i>
 </incar>
 <structure name="primitive_cell" >
  <crystal>
   <varray name="basis" >
    <v>       7.87856000       0.00008300       0.00615600 </v>
    <v>      -0.00004900       7.87418100       0.00005200 </v>
    <v>       0.00626800      -0.00009600       7.87868900 </v>
   </varray>
   <i name="volume">    488.77156024 </i>
   <varray name="rec_basis" >
    <v>       0.12692683       0.00000079      -0.00010098 </v>
    <v>      -0.00000134       0.12699733       0.00000155 </v>
    <v>      -0.00009917      -0.00000084       0.12692475 </v>
   </varray>
  </crystal>
  <varray name="positions" >
   <v>       0.03427100      -0.01592600      -0.02103800 </v>
   <v>      -0.22327500       0.00952300      -0.18983400 </v>
   <v>      -0.00685400       0.19124200       0.20946500 </v>
   <v>       0.21461600      -0.00222900      -0.27982200 </v>
   <v>       0.28339400      -0.21750800       0.00367700 </v>
   <v>      -0.00818500      -0.23144600       0.21416700 </v>
   <v>       0.27806900       0.19886600       0.00143300 </v>
   <v>      -0.00219800      -0.27939900      -0.21290600 </v>
   <v>       0.00652200       0.29014600      -0.21955800 </v>
   <v>       0.24964200      -0.24973700      -0.24828000 </v>
   <v>       0.25746600      -0.01165500       0.29992300 </v>
   <v>       0.25680000       0.24690400      -0.24919000 </v>
   <v>      -0.29209500      -0.26696900       0.01277100 </v>
   <v>       0.23323200       0.23297800       0.24493200 </v>
   <v>       0.25063800      -0.25617100       0.25603400 </v>
   <v>      -0.25230000      -0.24280700      -0.24041900 </v>
   <v>      -0.24636000       0.25597200      -0.22809500 </v>
   <v>      -0.26821000       0.32242400       0.00182300 </v>
   <v>      -0.49755300       0.00045000      -0.01702800 </v>
   <v>      -0.24692200      -0.27469100       0.26476000 </v>
   <v>      -0.23395600       0.25967500       0.26952500 </v>
   <v>       0.00157100      -0.49774400       0.00203300 </v>
   <v>       0.01764800      -0.00755000       0.49402000 </v>
   <v>       0.49910300      -0.21778300      -0.28002300 </v>
   <v>      -0.43899100       0.15127900       0.24843800 </v>
   <v>      -0.22528500      -0.18271100       0.49179800 </v>
   <v>       0.21408800      -0.29674600      -0.49637800 </v>
   <v>      -0.20139400       0.21543300      -0.49911200 </v>
   <v>       0.28874400       0.49846400      -0.21883700 </v>
   <v>      -0.49382500       0.21758500      -0.27450400 </v>
   <v>       0.24167600       0.48253500       0.20346400 </v>
   <v>       0.23540700       0.28193000       0.49335500 </v>
   <v>      -0.49890500      -0.27993400       0.29229100 </v>
   <v>      -0.27383800      -0.48662600      -0.29374200 </v>
   <v>      -0.21866800       0.49644300       0.30776000 </v>
   <v>       0.48427200      -0.47958400       0.00554300 </v>
   <v>      -0.00286500       0.49199300      -0.45176700 </v>
   <v>      -0.49524400      -0.00215300      -0.49930100 </v>
   <v>       0.47464700      -0.48277600      -0.46400200 </v>
  </varray>
 </structure>
 <varray name="primitive_index" >
  <v type="int" >        1 </v>
  <v type="int" >       33 </v>
  <v type="int" >       19 </v>
  <v type="int" >       23 </v>
  <v type="int" >       24 </v>
  <v type="int" >       25 </v>
  <v type="int" >       18 </v>
  <v type="int" >       28 </v>
  <v type="int" >       22 </v>
  <v type="int" >       12 </v>
  <v type="int" >       20 </v>
  <v type="int" >       10 </v>
  <v type="int" >       34 </v>
  <v type="int" >        9 </v>
  <v type="int" >       11 </v>
  <v type="int" >       16 </v>
  <v type="int" >       14 </v>
  <v type="int" >       30 </v>
  <v type="int" >        5 </v>
  <v type="int" >       15 </v>
  <v type="int" >       13 </v>
  <v type="int" >        3 </v>
  <v type="int" >        2 </v>
  <v type="int" >       38 </v>
  <v type="int" >       17 </v>
  <v type="int" >       37 </v>
  <v type="int" >       27 </v>
  <v type="int" >       31 </v>
  <v type="int" >       29 </v>
  <v type="int" >       32 </v>
  <v type="int" >       26 </v>
  <v type="int" >       21 </v>
  <v type="int" >       35 </v>
  <v type="int" >       39 </v>
  <v type="int" >       36 </v>
  <v type="int" >        7 </v>
  <v type="int" >        4 </v>
  <v type="int" >        6 </v>
  <v type="int" >        8 </v>
 </varray>
 <kpoints>
  <generation param="Monkhorst-Pack">
   <v type="int" name="divisions">       4        4        4 </v>
   <v name="usershift">      0.00000000       0.00000000       0.00000000 </v>
   <v name="genvec1">      0.25000000      -0.00000000       0.00000000 </v>
   <v name="genvec2">     -0.00000000       0.25000000      -0.00000000 </v>
   <v name="genvec3">      0.00000000       0.00000000       0.25000000 </v>
   <v name="shift">      0.50000000       0.50000000       0.50000000 </v>
  </generation>
  <varray name="kpointlist" >
   <v>       0.12500000       0.12500000       0.12500000 </v>
   <v>       0.37500000       0.12500000       0.12500000 </v>
   <v>      -0.37500000       0.12500000       0.12500000 </v>
   <v>      -0.12500000       0.12500000       0.12500000 </v>
   <v>       0.12500000       0.37500000       0.12500000 </v>
   <v>       0.37500000       0.37500000       0.12500000 </v>
   <v>      -0.37500000       0.37500000       0.12500000 </v>
   <v>      -0.12500000       0.37500000       0.12500000 </v>
   <v>       0.12500000      -0.37500000       0.12500000 </v>
   <v>       0.37500000      -0.37500000       0.12500000 </v>
   <v>      -0.37500000      -0.37500000       0.12500000 </v>
   <v>      -0.12500000      -0.37500000       0.12500000 </v>
   <v>       0.12500000      -0.12500000       0.12500000 </v>
   <v>       0.37500000      -0.12500000       0.12500000 </v>
   <v>      -0.37500000      -0.12500000       0.12500000 </v>
   <v>      -0.12500000      -0.12500000       0.12500000 </v>
   <v>       0.12500000       0.12500000       0.37500000 </v>
   <v>       0.37500000       0.12500000       0.37500000 </v>
   <v>      -0.37500000       0.12500000       0.37500000 </v>
   <v>      -0.12500000       0.12500000       0.37500000 </v>
   <v>       0.12500000       0.37500000       0.37500000 </v>
   <v>       0.37500000       0.37500000       0.37500000 </v>
   <v>      -0.37500000       0.37500000       0.37500000 </v>
   <v>      -0.12500000       0.37500000       0.37500000 </v>
   <v>       0.12500000      -0.37500000       0.37500000 </v>
   <v>       0.37500000      -0.37500000       0.37500000 </v>
   <v>      -0.37500000      -0.37500000       0.37500000 </v>
   <v>      -0.12500000      -0.37500000       0.37500000 </v>
   <v>       0.12500000      -0.12500000       0.37500000 </v>
   <v>       0.37500000      -0.12500000       0.37500000 </v>
   <v>      -0.37500000      -0.12500000       0.37500000 </v>
   <v>      -0.12500000      -0.12500000       0.37500000 </v>
  </varray>
  <varray name="weights" >
   <v>       0.03125000 </v>
   <v>       0.03125000 </v>
   <v>       0.03125000 </v>
   <v>       0.03125000 </v>
   <v>       0.03125000 </v>
   <v>       0.03125000 </v>
   <v>       0.03125000 </v>
   <v>       0.03125000 </v>
   <v>       0.03125000 </v>
   <v>       0.03125000 </v>
   <v>       0.03125000 </v>
   <v>       0.03125000 </v>
   <v>       0.03125000 </v>
   <v>       0.03125000 </v>
   <v>       0.03125000 </v>
   <v>       0.03125000 </v>
   <v>       0.03125000 </v>
   <v>       0.03125000 </v>
   <v>       0.03125000 </v>
   <v>       0.03125000 </v>
   <v>       0.03125000 </v>
   <v>       0.03125000 </v>
   <v>       0.03125000 </v>
   <v>       0.03125000 </v>
   <v>       0.03125000 </v>
   <v>       0.03125000 </v>
   <v>       0.03125000 </v>
   <v>       0.03125000 </v>
   <v>       0.03125000 </v>
   <v>       0.03125000 </v>
   <v>       0.03125000 </v>
   <v>       0.03125000 </v>
  </varray>
  <varray name="tetrahedronlist"  type="int" >
   <v type="int" >        2        1        2        5       18 </v>
   <v type="int" >        2        2        5        6       18 </v>
   <v type="int" >        2        5        6       18       22 </v>
   <v type="int" >        2        1        5       17       18 </v>
   <v type="int" >        2        5       17       18       21 </v>
   <v type="int" >        2        5       18       21       22 </v>
   <v type="int" >        2        2        3        6       19 </v>
   <v type="int" >        2        3        6        7       19 </v>
   <v type="int" >        2        6        7       19       23 </v>
   <v type="int" >        2        2        6       18       19 </v>
   <v type="int" >        2        6       18       19       22 </v>
   <v type="int" >        2        6       19       22       23 </v>
   <v type="int" >        2        3        4        7       20 </v>
   <v type="int" >        2        4        7        8       20 </v>
   <v type="int" >        2        7        8       20       24 </v>
   <v type="int" >        2        3        7       19       20 </v>
   <v type="int" >        2        7       19       20       23 </v>
   <v type="int" >        2        7       20       23       24 </v>
   <v type="int" >        2        1        4        8       17 </v>
   <v type="int" >        2        1        5        8       17 </v>
   <v type="int" >        2        5        8       17       21 </v>
   <v type="int" >        2        4        8       17       20 </v>
   <v type="int" >        2        8       17       20       24 </v>
   <v type="int" >        2        8       17       21       24 </v>
   <v type="int" >        2        5        6        9       22 </v>
   <v type="int" >        2        6        9       10       22 </v>
   <v type="int" >        2        9       10       22       26 </v>
   <v type="int" >        2        5        9       21       22 </v>
   <v type="int" >        2        9       21       22       25 </v>
   <v type="int" >        2        9       22       25       26 </v>
   <v type="int" >        2        6        7       10       23 </v>
   <v type="int" >        2        7       10       11       23 </v>
   <v type="int" >        2       10       11       23       27 </v>
   <v type="int" >        2        6       10       22       23 </v>
   <v type="int" >        2       10       22       23       26 </v>
   <v type="int" >        2       10       23       26       27 </v>
   <v type="int" >        2        7        8       11       24 </v>
   <v type="int" >        2        8       11       12       24 </v>
   <v type="int" >        2       11       12       24       28 </v>
   <v type="int" >        2        7       11       23       24 </v>
   <v type="int" >        2       11       23       24       27 </v>
   <v type="int" >        2       11       24       27       28 </v>
   <v type="int" >        2        5        8       12       21 </v>
   <v type="int" >        2        5        9       12       21 </v>
   <v type="int" >        2        9       12       21       25 </v>
   <v type="int" >        2        8       12       21       24 </v>
   <v type="int" >        2       12       21       24       28 </v>
   <v type="int" >        2       12       21       25       28 </v>
   <v type="int" >        2        9       10       13       26 </v>
   <v type="int" >        2       10       13       14       26 </v>
   <v type="int" >        2       13       14       26       30 </v>
   <v type="int" >        2        9       13       25       26 </v>
   <v type="int" >        2       13       25       26       29 </v>
   <v type="int" >        2       13       26       29       30 </v>
   <v type="int" >        2       10       11       14       27 </v>
   <v type="int" >        2       11       14       15       27 </v>
   <v type="int" >        2       14       15       27       31 </v>
   <v type="int" >        2       10       14       26       27 </v>
   <v type="int" >        2       14       26       27       30 </v>
   <v type="int" >        2       14       27       30       31 </v>
   <v type="int" >        2       11       12       15       28 </v>
   <v type="int" >        2       12       15       16       28 </v>
   <v type="int" >        2       15       16       28       32 </v>
   <v type="int" >        2       11       15       27       28 </v>
   <v type="int" >        2       15       27       28       31 </v>
   <v type="int" >        2       15       28       31       32 </v>
   <v type="int" >        2        9       12       16       25 </v>
   <v type="int" >        2        9       13       16       25 </v>
   <v type="int" >        2       13       16       25       29 </v>
   <v type="int" >        2       12       16       25       28 </v>
   <v type="int" >        2       16       25       28       32 </v>
   <v type="int" >        2       16       25       29       32 </v>
   <v type="int" >        2        1       13       14       30 </v>
   <v type="int" >        2        1        2       14       30 </v>
   <v type="int" >        2        1        2       18       30 </v>
   <v type="int" >        2        1       13       29       30 </v>
   <v type="int" >        2        1       17       29       30 </v>
   <v type="int" >        2        1       17       18       30 </v>
   <v type="int" >        2        2       14       15       31 </v>
   <v type="int" >        2        2        3       15       31 </v>
   <v type="int" >        2        2        3       19       31 </v>
   <v type="int" >        2        2       14       30       31 </v>
   <v type="int" >        2        2       18       30       31 </v>
   <v type="int" >        2        2       18       19       31 </v>
   <v type="int" >        2        3       15       16       32 </v>
   <v type="int" >        2        3        4       16       32 </v>
   <v type="int" >        2        3        4       20       32 </v>
   <v type="int" >        2        3       15       31       32 </v>
   <v type="int" >        2        3       19       31       32 </v>
   <v type="int" >        2        3       19       20       32 </v>
   <v type="int" >        2        4       13       16       29 </v>
   <v type="int" >        2        1        4       13       29 </v>
   <v type="int" >        2        1        4       17       29 </v>
   <v type="int" >        2        4       16       29       32 </v>
   <v type="int" >        2        4       20       29       32 </v>
   <v type="int" >        2        4       17       20       29 </v>
   <v type="int" >        2       17       18       21       31 </v>
   <v type="int" >        2       18       21       22       31 </v>
   <v type="int" >        2       21       22       27       31 </v>
   <v type="int" >        2       17       21       31       32 </v>
   <v type="int" >        2       21       28       31       32 </v>
   <v type="int" >        2       21       27       28       31 </v>
   <v type="int" >        2       18       19       22       30 </v>
   <v type="int" >        2       19       22       23       30 </v>
   <v type="int" >        2       22       23       26       30 </v>
   <v type="int" >        2       18       22       30       31 </v>
   <v type="int" >        2       22       27       30       31 </v>
   <v type="int" >        2       22       26       27       30 </v>
   <v type="int" >        2       19       20       23       29 </v>
   <v type="int" >        2       20       23       24       29 </v>
   <v type="int" >        2       23       24       25       29 </v>
   <v type="int" >        2       19       23       29       30 </v>
   <v type="int" >        2       23       26       29       30 </v>
   <v type="int" >        2       23       25       26       29 </v>
   <v type="int" >        2       17       20       24       32 </v>
   <v type="int" >        2       17       21       24       32 </v>
   <v type="int" >        2       21       24       28       32 </v>
   <v type="int" >        2       20       24       29       32 </v>
   <v type="int" >        2       24       25       29       32 </v>
   <v type="int" >        2       24       25       28       32 </v>
   <v type="int" >        2       21       22       25       27 </v>
   <v type="int" >        2       22       25       26       27 </v>
   <v type="int" >        2       23       25       26       27 </v>
   <v type="int" >        2       21       25       27       28 </v>
   <v type="int" >        2       24       25       27       28 </v>
   <v type="int" >        2       23       24       25       27 </v>
   <v type="int" >        2       22       23       26       26 </v>
   <v type="int" >        2       23       26       26       27 </v>
   <v type="int" >        2       22       26       26       27 </v>
   <v type="int" >        2       21       24       28       28 </v>
   <v type="int" >        2       21       25       28       28 </v>
   <v type="int" >        2       24       25       28       28 </v>
   <v type="int" >        2       17       19       29       30 </v>
   <v type="int" >        2       17       18       19       30 </v>
   <v type="int" >        2       17       18       19       31 </v>
   <v type="int" >        2       17       19       20       29 </v>
   <v type="int" >        2       17       19       20       32 </v>
   <v type="int" >        2       17       19       31       32 </v>
   <v type="int" >        2       18       18       30       31 </v>
   <v type="int" >        2       18       18       19       31 </v>
   <v type="int" >        2       18       18       19       30 </v>
   <v type="int" >        2       20       20       29       32 </v>
   <v type="int" >        2       17       20       20       29 </v>
   <v type="int" >        2       17       20       20       32 </v>
   <v type="int" >        2        2       12       15       16 </v>
   <v type="int" >        2        2       11       12       15 </v>
   <v type="int" >        2        2        6       11       12 </v>
   <v type="int" >        2        1        2       12       16 </v>
   <v type="int" >        2        1        2        5       12 </v>
   <v type="int" >        2        2        5        6       12 </v>
   <v type="int" >        2        3       11       14       15 </v>
   <v type="int" >        2        3       10       11       14 </v>
   <v type="int" >        2        3        7       10       11 </v>
   <v type="int" >        2        2        3       11       15 </v>
   <v type="int" >        2        2        3        6       11 </v>
   <v type="int" >        2        3        6        7       11 </v>
   <v type="int" >        2        4       10       13       14 </v>
   <v type="int" >        2        4        9       10       13 </v>
   <v type="int" >        2        4        8        9       10 </v>
   <v type="int" >        2        3        4       10       14 </v>
   <v type="int" >        2        3        4        7       10 </v>
   <v type="int" >        2        4        7        8       10 </v>
   <v type="int" >        2        1        9       13       16 </v>
   <v type="int" >        2        1        9       12       16 </v>
   <v type="int" >        2        1        5        9       12 </v>
   <v type="int" >        2        1        4        9       13 </v>
   <v type="int" >        2        1        4        8        9 </v>
   <v type="int" >        2        1        5        8        9 </v>
   <v type="int" >        2        6        8       11       12 </v>
   <v type="int" >        2        6        7        8       11 </v>
   <v type="int" >        2        6        7        8       10 </v>
   <v type="int" >        2        5        6        8       12 </v>
   <v type="int" >        2        5        6        8        9 </v>
   <v type="int" >        2        6        8        9       10 </v>
   <v type="int" >        2        7        7       10       11 </v>
   <v type="int" >        2        6        7        7       10 </v>
   <v type="int" >        2        6        7        7       11 </v>
   <v type="int" >        2        5        5        9       12 </v>
   <v type="int" >        2        5        5        8       12 </v>
   <v type="int" >        2        5        5        8        9 </v>
   <v type="int" >        2        3        4       14       16 </v>
   <v type="int" >        2        3       14       15       16 </v>
   <v type="int" >        2        2       14       15       16 </v>
   <v type="int" >        2        4       13       14       16 </v>
   <v type="int" >        2        1       13       14       16 </v>
   <v type="int" >        2        1        2       14       16 </v>
   <v type="int" >        2        2        3       15       15 </v>
   <v type="int" >        2        2       14       15       15 </v>
   <v type="int" >        2        3       14       15       15 </v>
   <v type="int" >        2        1        4       13       13 </v>
   <v type="int" >        2        4       13       13       16 </v>
   <v type="int" >        2        1       13       13       16 </v>
  </varray>
  <i name="volumeweight">      0.00260417 </i>
 </kpoints>
 <parameters>
  <separator name="general" >
   <i type="string" name="SYSTEM">unknown system</i>
   <i type="logical" name="LCOMPAT"> F  </i>
  </separator>
  <separator name="electronic" >
   <i type="string" name="PREC">accura</i>
   <i name="ENMAX">    424.27950000</i>
   <i name="ENAUG">    482.84800000</i>
   <i name="EDIFF">      0.00001000</i>
   <i type="int" name="IALGO">    38</i>
   <i type="int" name="IWAVPR">    11</i>
   <i type="int" name="NBANDS">   192</i>
   <i name="NELECT">    282.00000000</i>
   <i type="int" name="TURBO">     0</i>
   <i type="int" name="IRESTART">     0</i>
   <i type="int" name="NREBOOT">     0</i>
   <i type="int" name="NMIN">     0</i>
   <i name="EREF">      0.00000000</i>
   <separator name="electronic smearing" >
    <i type="int" name="ISMEAR">    -5</i>
    <i name="SIGMA">      0.05000000</i>
    <i name="KSPACING">      0.50000000</i>
    <i type="logical" name="KGAMMA"> T  </i>
   </separator>
   <separator name="electronic projectors" >
    <i type="logical" name="LREAL"> F  </i>
    <v name="ROPT">      0.00000000      0.00000000      0.00000000</v>
    <i type="int" name="LMAXPAW">  -100</i>
    <i type="int" name="LMAXMIX">     2</i>
    <i type="logical" name="NLSPLINE"> F  </i>
   </separator>
   <separator name="electronic startup" >
    <i type="int" name="ISTART">     0</i>
    <i type="int" name="ICHARG">     2</i>
    <i type="int" name="INIWAV">     1</i>
   </separator>
   <separator name="electronic spin" >
    <i type="int" name="ISPIN">     2</i>
    <i type="logical" name="LNONCOLLINEAR"> F  </i>
    <v name="MAGMOM">      1.00000000      1.00000000      1.00000000      1.00000000      1.00000000      1.00000000      1.00000000      1.00000000      1.00000000      1.00000000      1.00000000      1.00000000      1.00000000      1.00000000      1.00000000      1.00000000      1.00000000      1.00000000      1.00000000      1.00000000
      1.00000000      1.00000000      1.00000000      1.00000000      1.00000000      1.00000000      1.00000000      1.00000000      1.00000000      1.00000000      1.00000000      1.00000000      1.00000000      1.00000000      1.00000000      1.00000000      1.00000000      1.00000000      1.00000000</v>
    <i name="NUPDOWN">     -1.00000000</i>
    <i type="logical" name="LSORBIT"> F  </i>
    <v name="SAXIS">      0.00000000      0.00000000      1.00000000</v>
    <i type="logical" name="LSPIRAL"> F  </i>
    <v name="QSPIRAL">      0.00000000      0.00000000      0.00000000</v>
    <i type="logical" name="LZEROZ"> F  </i>
   </separator>
   <separator name="electronic exchange-correlation" >
    <i type="logical" name="LASPH"> F  </i>
    <i type="logical" name="LMETAGGA"> F  </i>
   </separator>
   <separator name="electronic convergence" >
    <i type="int" name="NELM">  2000</i>
    <i type="int" name="NELMDL">    -5</i>
    <i type="int" name="NELMIN">     2</i>
    <i name="ENINI">    424.27950000</i>
    <separator name="electronic convergence detail" >
     <i type="logical" name="LDIAG"> T  </i>
     <i type="logical" name="LSUBROT"> F  </i>
     <i name="WEIMIN">      0.00100000</i>
     <i name="EBREAK">      0.00000001</i>
     <i name="DEPER">      0.30000000</i>
     <i type="int" name="NRMM">     4</i>
     <i name="TIME">      0.40000000</i>
    </separator>
   </separator>
   <separator name="electronic mixer" >
    <i name="AMIX">      0.40000000</i>
    <i name="BMIX">      1.00000000</i>
    <i name="AMIN">      0.10000000</i>
    <i name="AMIX_MAG">      1.60000000</i>
    <i name="BMIX_MAG">      1.00000000</i>
    <separator name="electronic mixer details" >
     <i type="int" name="IMIX">     4</i>
     <i type="logical" name="MIXFIRST"> F  </i>
     <i type="int" name="MAXMIX">   -45</i>
     <i name="WC">    100.00000000</i>
     <i type="int" name="INIMIX">     1</i>
     <i type="int" name="MIXPRE">     1</i>
     <i type="int" name="MREMOVE">     5</i>
    </separator>
   </separator>
   <separator name="electronic dipolcorrection" >
    <i type="logical" name="LDIPOL"> F  </i>
    <i type="logical" name="LMONO"> F  </i>
    <i type="int" name="IDIPOL">     0</i>
    <i name="EPSILON">      1.00000000</i>
    <v name="DIPOL">   -100.00000000   -100.00000000   -100.00000000</v>
    <i name="EFIELD">      0.00000000</i>
   </separator>
  </separator>
  <separator name="grids" >
   <i type="int" name="NGX">    54</i>
   <i type="int" name="NGY">    54</i>
   <i type="int" name="NGZ">    54</i>
   <i type="int" name="NGXF">   108</i>
   <i type="int" name="NGYF">   108</i>
   <i type="int" name="NGZF">   108</i>
   <i type="logical" name="ADDGRID"> T  </i>
  </separator>
  <separator name="ionic" >
   <i type="int" name="NSW">     1</i>
   <i type="int" name="IBRION">     8</i>
   <i type="int" name="MDALGO">     0</i>
   <i type="int" name="ISIF">     2</i>
   <i name="PSTRESS">      0.00000000</i>
   <i name="EDIFFG">      0.00010000</i>
   <i type="int" name="NFREE">     0</i>
   <i name="POTIM">      0.50000000</i>
   <i name="SMASS">     -3.00000000</i>
   <i name="SCALEE">      1.00000000</i>
  </separator>
  <separator name="ionic md" >
   <i name="TEBEG">      0.00010000</i>
   <i name="TEEND">      0.00010000</i>
   <i type="int" name="NBLOCK">     1</i>
   <i type="int" name="KBLOCK">     1</i>
   <i type="int" name="NPACO">   256</i>
   <i name="APACO">     16.00000000</i>
  </separator>
  <separator name="symmetry" >
   <i type="int" name="ISYM">     2</i>
   <i name="SYMPREC">      0.00001000</i>
  </separator>
  <separator name="dos" >
   <i type="int" name="LORBIT">     0</i>
   <v name="RWIGS">     -1.00000000     -1.00000000     -1.00000000</v>
   <i type="int" name="NEDOS">   301</i>
   <i name="EMIN">     10.00000000</i>
   <i name="EMAX">    -10.00000000</i>
   <i name="EFERMI">      0.00000000</i>
  </separator>
  <separator name="writing" >
   <i type="int" name="NWRITE">     2</i>
   <i type="logical" name="LWAVE"> F  </i>
   <i type="logical" name="LDOWNSAMPLE"> F  </i>
   <i type="logical" name="LCHARG"> F  </i>
   <i type="logical" name="LPARD"> F  </i>
   <i type="logical" name="LVTOT"> F  </i>
   <i type="logical" name="LVHAR"> F  </i>
   <i type="logical" name="LELF"> F  </i>
   <i type="logical" name="LOPTICS"> F  </i>
   <v name="STM">      0.00000000      0.00000000      0.00000000      0.00000000      0.00000000      0.00000000      0.00000000</v>
  </separator>
  <separator name="performance" >
   <i type="int" name="NPAR">    48</i>
   <i type="int" name="NSIM">     4</i>
   <i type="int" name="NBLK">    -1</i>
   <i type="logical" name="LPLANE"> T  </i>
   <i type="logical" name="LSCALAPACK"> T  </i>
   <i type="logical" name="LSCAAWARE"> F  </i>
   <i type="logical" name="LSCALU"> F  </i>
   <i type="logical" name="LASYNC"> F  </i>
   <i type="logical" name="LORBITALREAL"> F  </i>
  </separator>
  <separator name="miscellaneous" >
   <i type="int" name="IDIOT">     3</i>
   <i type="int" name="ISPECIAL">     0</i>
   <i type="logical" name="LMUSIC"> F  </i>
   <v name="POMASS">     40.07800000     47.88000000     16.00000000</v>
   <v name="DARWINR">      0.00000000      0.00000000      0.00000000</v>
   <v name="DARWINV">      1.00000000      1.00000000      1.00000000</v>
   <i type="logical" name="LCORR"> T  </i>
  </separator>
  <i type="logical" name="GGA_COMPAT"> T  </i>
  <i type="logical" name="LBERRY"> F  </i>
  <i type="int" name="ICORELEVEL">     0</i>
  <i type="logical" name="LDAU"> F  </i>
  <i type="int" name="I_CONSTRAINED_M">     0</i>
  <separator name="electronic exchange-correlation" >
   <i type="string" name="GGA">--</i>
   <i type="int" name="VOSKOWN">     0</i>
   <i type="logical" name="LHFCALC"> F  </i>
   <i type="string" name="PRECFOCK"></i>
   <i type="logical" name="LSYMGRAD"> F  </i>
   <i type="logical" name="LHFONE"> F  </i>
   <i type="logical" name="LRHFCALC"> F  </i>
   <i type="logical" name="LTHOMAS"> F  </i>
   <i type="logical" name="LMODELHF"> F  </i>
   <i name="ENCUT4O">     -1.00000000</i>
   <i type="int" name="EXXOEP">     0</i>
   <i type="int" name="FOURORBIT">     0</i>
   <i name="AEXX">      0.00000000</i>
   <i name="HFALPHA">      0.00000000</i>
   <i name="MCALPHA">      0.00000000</i>
   <i name="ALDAX">      1.00000000</i>
   <i name="AGGAX">      1.00000000</i>
   <i name="ALDAC">      1.00000000</i>
   <i name="AGGAC">      1.00000000</i>
   <i type="int" name="NKREDX">     1</i>
   <i type="int" name="NKREDY">     1</i>
   <i type="int" name="NKREDZ">     1</i>
   <i type="logical" name="SHIFTRED"> F  </i>
   <i type="logical" name="ODDONLY"> F  </i>
   <i type="logical" name="EVENONLY"> F  </i>
   <i type="int" name="LMAXFOCK">     0</i>
   <i type="int" name="NMAXFOCKAE">     0</i>
   <i type="logical" name="LFOCKAEDFT"> F  </i>
   <i name="HFSCREEN">      0.00000000</i>
   <i name="HFSCREENC">      0.00000000</i>
   <i type="int" name="NBANDSGWLOW">     0</i>
  </separator>
  <separator name="vdW DFT" >
   <i type="logical" name="LUSE_VDW"> F  </i>
   <i name="Zab_VDW">     -0.84910000</i>
   <i name="PARAM1">      0.12340000</i>
   <i name="PARAM2">      1.00000000</i>
   <i name="PARAM3">      0.00000000</i>
  </separator>
  <separator name="model GW" >
   <i type="int" name="MODEL_GW">     0</i>
   <i name="MODEL_EPS0">      7.51956247</i>
   <i name="MODEL_ALPHA">      1.00000000</i>
  </separator>
  <separator name="linear response parameters" >
   <i type="logical" name="LEPSILON"> F  </i>
   <i type="logical" name="LRPA"> F  </i>
   <i type="logical" name="LNABLA"> F  </i>
   <i type="logical" name="LVEL"> F  </i>
   <i type="int" name="KINTER">     0</i>
   <i name="CSHIFT">      0.10000000</i>
   <i name="OMEGAMAX">     -1.00000000</i>
   <i name="DEG_THRESHOLD">      0.00200000</i>
   <i name="RTIME">     -0.10000000</i>
   <i name="WPLASMAI">      0.00000000</i>
   <v name="DFIELD">      0.00000000      0.00000000      0.00000000</v>
   <v name="WPLASMA">      0.00000000      0.00000000      0.00000000      0.00000000      0.00000000      0.00000000      0.00000000      0.00000000      0.00000000</v>
  </separator>
  <separator name="orbital magnetization" >
   <i type="logical" name="NUCIND"> F  </i>
   <v name="MAGPOS">      0.00000000      0.00000000      0.00000000</v>
   <i type="logical" name="LNICSALL"> T  </i>
   <i type="logical" name="ORBITALMAG"> F  </i>
   <i type="logical" name="LMAGBLOCH"> F  </i>
   <i type="logical" name="LCHIMAG"> F  </i>
   <i type="logical" name="LGAUGE"> T  </i>
   <i type="int" name="MAGATOM">     0</i>
   <v name="MAGDIPOL">      0.00000000      0.00000000      0.00000000</v>
   <v name="AVECCONST">      0.00000000      0.00000000      0.00000000</v>
  </separator>
  <separator name="response functions" >
   <i type="logical" name="LADDER"> F  </i>
   <i type="logical" name="LRPAFORCE"> F  </i>
   <i type="logical" name="LFXC"> F  </i>
   <i type="logical" name="LHARTREE"> T  </i>
   <i type="int" name="IBSE">     0</i>
   <v type="int" name="KPOINT">    -1     0     0     0</v>
   <i type="logical" name="LTCTE"> F  </i>
   <i type="logical" name="LTETE"> F  </i>
   <i type="logical" name="LTRIPLET"> F  </i>
   <i type="logical" name="LFXCEPS"> F  </i>
   <i type="logical" name="LFXHEG"> F  </i>
   <i type="int" name="NATURALO">     2</i>
   <i type="logical" name="L2ORDER"> F  </i>
   <i type="logical" name="LMP2LT"> F  </i>
   <i type="logical" name="LUSEW"> F  </i>
   <i name="ENCUTGW">     -2.00000000</i>
   <i name="ENCUTGWSOFT">     -2.00000000</i>
   <i name="ENCUTLF">     -1.00000000</i>
   <i type="int" name="LMAXMP2">    -1</i>
   <i name="SCISSOR">      0.00000000</i>
   <i type="int" name="NOMEGA">     0</i>
   <i type="int" name="NOMEGAR">     0</i>
   <i type="int" name="NBANDSGW">    -1</i>
   <i type="int" name="NBANDSO">    -1</i>
   <i type="int" name="NBANDSV">    -1</i>
   <i type="int" name="NELM">  2000</i>
   <i type="int" name="NELMHF">     1</i>
   <i type="int" name="DIM">     3</i>
   <i type="int" name="ANTIRES">     0</i>
   <i name="OMEGAMAX">    -30.00000000</i>
   <i name="OMEGAMIN">    -30.00000000</i>
   <i name="OMEGATL">   -200.00000000</i>
   <i type="int" name="OMEGAGRID">   140</i>
   <i name="CSHIFT">     -0.10000000</i>
   <i type="logical" name="SELFENERGY"> F  </i>
   <i type="logical" name="LSPECTRAL"> F  </i>
   <i type="logical" name="LSPECTRALGW"> F  </i>
   <i type="logical" name="LSINGLES"> F  </i>
   <i type="logical" name="LFERMIGW"> F  </i>
   <i type="logical" name="ODDONLYGW"> F  </i>
   <i type="logical" name="EVENONLYGW"> F  </i>
   <i type="int" name="NKREDLFX">     1</i>
   <i type="int" name="NKREDLFY">     1</i>
   <i type="int" name="NKREDLFZ">     1</i>
   <i type="int" name="MAXMEM">  2800</i>
   <i type="int" name="TELESCOPE">     0</i>
   <i type="int" name="TAUPAR">     1</i>
   <i type="int" name="OMEGAPAR">    -1</i>
   <i name="LAMBDA">      1.00000000</i>
  </separator>
  <separator name="External order field" >
   <i name="OFIELD_KAPPA">      0.00000000</i>
   <v name="OFIELD_K">      0.00000000      0.00000000      0.00000000</v>
   <i name="OFIELD_Q6_NEAR">      0.00000000</i>
   <i name="OFIELD_Q6_FAR">      0.00000000</i>
   <i name="OFIELD_A">      0.00000000</i>
  </separator>
 </parameters>
 <atominfo>
  <atoms>      39 </atoms>
  <types>       3 </types>
  <array name="atoms" >
   <dimension dim="1">ion</dimension>
   <field type="string">element</field>
   <field type="int">atomtype</field>
   <set>
    <rc><c>Ca</c><c>   1</c></rc>
    <rc><c>Ca</c><c>   1</c></rc>
    <rc><c>Ca</c><c>   1</c></rc>
    <rc><c>Ca</c><c>   1</c></rc>
    <rc><c>Ca</c><c>   1</c></rc>
    <rc><c>Ca</c><c>   1</c></rc>
    <rc><c>Ca</c><c>   1</c></rc>
    <rc><c>Ca</c><c>   1</c></rc>
    <rc><c>Ti</c><c>   2</c></rc>
    <rc><c>Ti</c><c>   2</c></rc>
    <rc><c>Ti</c><c>   2</c></rc>
    <rc><c>Ti</c><c>   2</c></rc>
    <rc><c>Ti</c><c>   2</c></rc>
    <rc><c>Ti</c><c>   2</c></rc>
    <rc><c>Ti</c><c>   2</c></rc>
    <rc><c>Ti</c><c>   2</c></rc>
    <rc><c>O </c><c>   3</c></rc>
    <rc><c>O </c><c>   3</c></rc>
    <rc><c>O </c><c>   3</c></rc>
    <rc><c>O </c><c>   3</c></rc>
    <rc><c>O </c><c>   3</c></rc>
    <rc><c>O </c><c>   3</c></rc>
    <rc><c>O </c><c>   3</c></rc>
    <rc><c>O </c><c>   3</c></rc>
    <rc><c>O </c><c>   3</c></rc>
    <rc><c>O </c><c>   3</c></rc>
    <rc><c>O </c><c>   3</c></rc>
    <rc><c>O </c><c>   3</c></rc>
    <rc><c>O </c><c>   3</c></rc>
    <rc><c>O </c><c>   3</c></rc>
    <rc><c>O </c><c>   3</c></rc>
    <rc><c>O </c><c>   3</c></rc>
    <rc><c>O </c><c>   3</c></rc>
    <rc><c>O </c><c>   3</c></rc>
    <rc><c>O </c><c>   3</c></rc>
    <rc><c>O </c><c>   3</c></rc>
    <rc><c>O </c><c>   3</c></rc>
    <rc><c>O </c><c>   3</c></rc>
    <rc><c>O </c><c>   3</c></rc>
   </set>
  </array>
  <array name="atomtypes" >
   <dimension dim="1">type</dimension>
   <field type="int">atomspertype</field>
   <field type="string">element</field>
   <field>mass</field>
   <field>valence</field>
   <field type="string">pseudopotential</field>
   <set>
    <rc><c>   8</c><c>Ca</c><c>     40.07800000</c><c>      8.00000000</c><c>  PAW_PBE Ca_pv 06Sep2000               </c></rc>
    <rc><c>   8</c><c>Ti</c><c>     47.88000000</c><c>     10.00000000</c><c>  PAW_PBE Ti_pv 07Sep2000               </c></rc>
    <rc><c>  23</c><c>O </c><c>     16.00000000</c><c>      6.00000000</c><c>  PAW_PBE O_s 07Sep2000                 </c></rc>
   </set>
  </array>
 </atominfo>
 <structure name="initialpos" >
  <crystal>
   <varray name="basis" >
    <v>       7.87856000       0.00008300       0.00615600 </v>
    <v>      -0.00004900       7.87418100       0.00005200 </v>
    <v>       0.00626800      -0.00009600       7.87868900 </v>
   </varray>
   <i name="volume">    488.77156024 </i>
   <varray name="rec_basis" >
    <v>       0.12692683       0.00000079      -0.00010098 </v>
    <v>      -0.00000134       0.12699733       0.00000155 </v>
    <v>      -0.00009917      -0.00000084       0.12692475 </v>
   </varray>
  </crystal>
  <varray name="positions" >
   <v>       0.03427100       0.98407400       0.97896200 </v>
   <v>       0.01764800       0.99245000       0.49402000 </v>
   <v>       0.00157100       0.50225600       0.00203300 </v>
   <v>       0.99713500       0.49199300       0.54823300 </v>
   <v>       0.50244700       0.00045000       0.98297200 </v>
   <v>       0.50475600       0.99784700       0.50069900 </v>
   <v>       0.48427200       0.52041600       0.00554300 </v>
   <v>       0.47464700       0.51722400       0.53599800 </v>
   <v>       0.23323200       0.23297800       0.24493200 </v>
   <v>       0.25680000       0.24690400       0.75081000 </v>
   <v>       0.25063800       0.74382900       0.25603400 </v>
   <v>       0.24964200       0.75026300       0.75172000 </v>
   <v>       0.76604400       0.25967500       0.26952500 </v>
   <v>       0.75364000       0.25597200       0.77190500 </v>
   <v>       0.75307800       0.72530900       0.26476000 </v>
   <v>       0.74770000       0.75719300       0.75958100 </v>
   <v>       0.56100900       0.15127900       0.24843800 </v>
   <v>       0.27806900       0.19886600       0.00143300 </v>
   <v>       0.99314600       0.19124200       0.20946500 </v>
   <v>       0.25746600       0.98834500       0.29992300 </v>
   <v>       0.23540700       0.28193000       0.49335500 </v>
   <v>       0.00652200       0.29014600       0.78044200 </v>
   <v>       0.21461600       0.99777100       0.72017800 </v>
   <v>       0.28339400       0.78249200       0.00367700 </v>
   <v>       0.99181500       0.76855400       0.21416700 </v>
   <v>       0.24167600       0.48253500       0.20346400 </v>
   <v>       0.21408800       0.70325400       0.50362200 </v>
   <v>       0.99780200       0.72060100       0.78709400 </v>
   <v>       0.28874400       0.49846400       0.78116300 </v>
   <v>       0.73179000       0.32242400       0.00182300 </v>
   <v>       0.79860600       0.21543300       0.50088800 </v>
   <v>       0.50617500       0.21758500       0.72549600 </v>
   <v>       0.77672500       0.00952300       0.81016600 </v>
   <v>       0.70790500       0.73303100       0.01277100 </v>
   <v>       0.50109500       0.72006600       0.29229100 </v>
   <v>       0.78133200       0.49644300       0.30776000 </v>
   <v>       0.77471500       0.81728900       0.49179800 </v>
   <v>       0.49910300       0.78221700       0.71997700 </v>
   <v>       0.72616200       0.51337400       0.70625800 </v>
  </varray>
 </structure>
 <calculation>
  <scstep>
   <time name="dav">   48.71   50.85</time>
   <time name="total">   49.50   53.01</time>
   <energy>
    <i name="alphaZ">   1170.71118258 </i>
    <i name="ewald"> -17451.47188160 </i>
    <i name="hartreedc">  -5431.43301701 </i>
    <i name="XCdc">   1056.35122642 </i>
    <i name="pawpsdc">  17970.44135177 </i>
    <i name="pawaedc"> -18047.97818081 </i>
    <i name="eentropy">      0.00000000 </i>
    <i name="bandstr">    781.28614088 </i>
    <i name="atom">  23186.49350644 </i>
    <i name="e_fr_energy">   3234.40032866 </i>
    <i name="e_wo_entrp">   3234.40032866 </i>
    <i name="e_0_energy">   3234.40032866 </i>
   </energy>
  </scstep>
  <scstep>
   <time name="dav">   37.71   38.01</time>
   <time name="total">   37.82   38.13</time>
   <energy>
    <i name="e_fr_energy">    202.41611363 </i>
    <i name="e_wo_entrp">    202.41611363 </i>
    <i name="e_0_energy">    202.41611363 </i>
   </energy>
  </scstep>
  <scstep>
   <time name="dav">   39.91   40.37</time>
   <time name="total">   40.01   40.48</time>
   <energy>
    <i name="e_fr_energy">   -354.64759779 </i>
    <i name="e_wo_entrp">   -354.64759779 </i>
    <i name="e_0_energy">   -354.64759779 </i>
   </energy>
  </scstep>
  <scstep>
   <time name="dav">   52.18   52.97</time>
   <time name="total">   52.29   53.08</time>
   <energy>
    <i name="e_fr_energy">   -378.12603390 </i>
    <i name="e_wo_entrp">   -378.12603390 </i>
    <i name="e_0_energy">   -378.12603390 </i>
   </energy>
  </scstep>
  <scstep>
   <time name="dav">   52.03   53.09</time>
   <time name="total">   53.11   54.17</time>
   <energy>
    <i name="e_fr_energy">   -378.78521400 </i>
    <i name="e_wo_entrp">   -378.78521400 </i>
    <i name="e_0_energy">   -378.78521400 </i>
   </energy>
  </scstep>
  <scstep>
   <time name="dav">   52.10   52.66</time>
   <time name="total">   53.55   54.17</time>
   <energy>
    <i name="e_fr_energy">   -306.24136065 </i>
    <i name="e_wo_entrp">   -306.24136065 </i>
    <i name="e_0_energy">   -306.24136065 </i>
   </energy>
  </scstep>
  <scstep>
   <time name="dav">   43.67   44.48</time>
   <time name="total">   45.17   45.99</time>
   <energy>
    <i name="e_fr_energy">   -310.15366476 </i>
    <i name="e_wo_entrp">   -310.15366476 </i>
    <i name="e_0_energy">   -310.15366476 </i>
   </energy>
  </scstep>
  <scstep>
   <time name="dav">   42.28   43.16</time>
   <time name="total">   43.79   44.71</time>
   <energy>
    <i name="e_fr_energy">   -312.56563254 </i>
    <i name="e_wo_entrp">   -312.56563254 </i>
    <i name="e_0_energy">   -312.56563254 </i>
   </energy>
  </scstep>
  <scstep>
   <time name="dav">   43.43   44.32</time>
   <time name="total">   44.93   45.83</time>
   <energy>
    <i name="e_fr_energy">   -311.87435767 </i>
    <i name="e_wo_entrp">   -311.87435767 </i>
    <i name="e_0_energy">   -311.87435767 </i>
   </energy>
  </scstep>
  <scstep>
   <time name="dav">   48.26   49.01</time>
   <time name="total">   49.65   50.65</time>
   <energy>
    <i name="e_fr_energy">   -311.40362227 </i>
    <i name="e_wo_entrp">   -311.40362227 </i>
    <i name="e_0_energy">   -311.40362227 </i>
   </energy>
  </scstep>
  <scstep>
   <time name="dav">   46.90   48.19</time>
   <time name="total">   48.45   49.82</time>
   <energy>
    <i name="e_fr_energy">   -311.23885919 </i>
    <i name="e_wo_entrp">   -311.23885919 </i>
    <i name="e_0_energy">   -311.23885919 </i>
   </energy>
  </scstep>
  <scstep>
   <time name="dav">   45.33   46.33</time>
   <time name="total">   46.79   47.93</time>
   <energy>
    <i name="e_fr_energy">   -311.19125917 </i>
    <i name="e_wo_entrp">   -311.19125917 </i>
    <i name="e_0_energy">   -311.19125917 </i>
   </energy>
  </scstep>
  <scstep>
   <time name="dav">   44.30   45.49</time>
   <time name="total">   45.75   46.96</time>
   <energy>
    <i name="e_fr_energy">   -311.17522147 </i>
    <i name="e_wo_entrp">   -311.17522147 </i>
    <i name="e_0_energy">   -311.17522147 </i>
   </energy>
  </scstep>
  <scstep>
   <time name="dav">   44.34   45.38</time>
   <time name="total">   45.82   46.94</time>
   <energy>
    <i name="e_fr_energy">   -311.18106141 </i>
    <i name="e_wo_entrp">   -311.18106141 </i>
    <i name="e_0_energy">   -311.18106141 </i>
   </energy>
  </scstep>
  <scstep>
   <time name="dav">   45.18   46.21</time>
   <time name="total">   46.68   47.74</time>
   <energy>
    <i name="e_fr_energy">   -311.18295884 </i>
    <i name="e_wo_entrp">   -311.18295884 </i>
    <i name="e_0_energy">   -311.18295884 </i>
   </energy>
  </scstep>
  <scstep>
   <time name="dav">   44.92   45.44</time>
   <time name="total">   46.41   47.03</time>
   <energy>
    <i name="e_fr_energy">   -311.18370541 </i>
    <i name="e_wo_entrp">   -311.18370541 </i>
    <i name="e_0_energy">   -311.18370541 </i>
   </energy>
  </scstep>
  <scstep>
   <time name="dav">   45.06   45.48</time>
   <time name="total">   46.47   47.00</time>
   <energy>
    <i name="e_fr_energy">   -311.18392880 </i>
    <i name="e_wo_entrp">   -311.18392880 </i>
    <i name="e_0_energy">   -311.18392880 </i>
   </energy>
  </scstep>
  <scstep>
   <time name="dav">   46.15   46.93</time>
   <time name="total">   47.62   48.47</time>
   <energy>
    <i name="e_fr_energy">   -311.18420941 </i>
    <i name="e_wo_entrp">   -311.18420941 </i>
    <i name="e_0_energy">   -311.18420941 </i>
   </energy>
  </scstep>
  <scstep>
   <time name="dav">   43.02   43.54</time>
   <time name="total">   44.48   45.05</time>
   <energy>
    <i name="e_fr_energy">   -311.18442618 </i>
    <i name="e_wo_entrp">   -311.18442618 </i>
    <i name="e_0_energy">   -311.18442618 </i>
   </energy>
  </scstep>
  <scstep>
   <time name="dav">   43.03   43.84</time>
   <time name="total">   44.51   45.33</time>
   <energy>
    <i name="e_fr_energy">   -311.18455249 </i>
    <i name="e_wo_entrp">   -311.18455249 </i>
    <i name="e_0_energy">   -311.18455249 </i>
   </energy>
  </scstep>
  <scstep>
   <time name="dav">   46.11   47.34</time>
   <time name="total">   47.59   48.83</time>
   <energy>
    <i name="e_fr_energy">   -311.18459064 </i>
    <i name="e_wo_entrp">   -311.18459064 </i>
    <i name="e_0_energy">   -311.18459064 </i>
   </energy>
  </scstep>
  <scstep>
   <time name="dav">   36.12   36.88</time>
   <time name="total">   37.66   38.44</time>
   <energy>
    <i name="e_fr_energy">   -311.18462647 </i>
    <i name="e_wo_entrp">   -311.18462647 </i>
    <i name="e_0_energy">   -311.18462647 </i>
   </energy>
  </scstep>
  <scstep>
   <time name="dav">   32.55   33.22</time>
   <time name="total">   33.06   33.83</time>
   <energy>
    <i name="alphaZ">   1170.71118258 </i>
    <i name="ewald"> -17451.47188160 </i>
    <i name="hartreedc">  -5538.71511484 </i>
    <i name="XCdc">   1066.10111865 </i>
    <i name="pawpsdc">  33254.08009996 </i>
    <i name="pawaedc"> -33364.04521590 </i>
    <i name="eentropy">      0.00000000 </i>
    <i name="bandstr">  -2634.33832011 </i>
    <i name="atom">  23186.49350644 </i>
    <i name="e_fr_energy">   -311.18462483 </i>
    <i name="e_wo_entrp">   -311.18462483 </i>
    <i name="e_0_energy">   -311.18462483 </i>
   </energy>
  </scstep>
  <structure>
   <crystal>
    <varray name="basis" >
     <v>       7.87856000       0.00008300       0.00615600 </v>
     <v>      -0.00004900       7.87418100       0.00005200 </v>
     <v>       0.00626800      -0.00009600       7.87868900 </v>
    </varray>
    <i name="volume">    488.77156024 </i>
    <varray name="rec_basis" >
     <v>       0.12692683       0.00000079      -0.00010098 </v>
     <v>      -0.00000134       0.12699733       0.00000155 </v>
     <v>      -0.00009917      -0.00000084       0.12692475 </v>
    </varray>
   </crystal>
   <varray name="positions" >
    <v>       0.03427100       0.98407400       0.97896200 </v>
    <v>       0.01764800       0.99245000       0.49402000 </v>
    <v>       0.00157100       0.50225600       0.00203300 </v>
    <v>       0.99713500       0.49199300       0.54823300 </v>
    <v>       0.50244700       0.00045000       0.98297200 </v>
    <v>       0.50475600       0.99784700       0.50069900 </v>
    <v>       0.48427200       0.52041600       0.00554300 </v>
    <v>       0.47464700       0.51722400       0.53599800 </v>
    <v>       0.23323200       0.23297800       0.24493200 </v>
    <v>       0.25680000       0.24690400       0.75081000 </v>
    <v>       0.25063800       0.74382900       0.25603400 </v>
    <v>       0.24964200       0.75026300       0.75172000 </v>
    <v>       0.76604400       0.25967500       0.26952500 </v>
    <v>       0.75364000       0.25597200       0.77190500 </v>
    <v>       0.75307800       0.72530900       0.26476000 </v>
    <v>       0.74770000       0.75719300       0.75958100 </v>
    <v>       0.56100900       0.15127900       0.24843800 </v>
    <v>       0.27806900       0.19886600       0.00143300 </v>
    <v>       0.99314600       0.19124200       0.20946500 </v>
    <v>       0.25746600       0.98834500       0.29992300 </v>
    <v>       0.23540700       0.28193000       0.49335500 </v>
    <v>       0.00652200       0.29014600       0.78044200 </v>
    <v>       0.21461600       0.99777100       0.72017800 </v>
    <v>       0.28339400       0.78249200       0.00367700 </v>
    <v>       0.99181500       0.76855400       0.21416700 </v>
    <v>       0.24167600       0.48253500       0.20346400 </v>
    <v>       0.21408800       0.70325400       0.50362200 </v>
    <v>       0.99780200       0.72060100       0.78709400 </v>
    <v>       0.28874400       0.49846400       0.78116300 </v>
    <v>       0.73179000       0.32242400       0.00182300 </v>
    <v>       0.79860600       0.21543300       0.50088800 </v>
    <v>       0.50617500       0.21758500       0.72549600 </v>
    <v>       0.77672500       0.00952300       0.81016600 </v>
    <v>       0.70790500       0.73303100       0.01277100 </v>
    <v>       0.50109500       0.72006600       0.29229100 </v>
    <v>       0.78133200       0.49644300       0.30776000 </v>
    <v>       0.77471500       0.81728900       0.49179800 </v>
    <v>       0.49910300       0.78221700       0.71997700 </v>
    <v>       0.72616200       0.51337400       0.70625800 </v>
   </varray>
  </structure>
  <varray name="forces" >
   <v>      -0.01261748       0.00931698       0.03040710 </v>
   <v>      -0.02278506       0.01767443      -0.03140671 </v>
   <v>       0.00381059      -0.01320501       0.03479099 </v>
   <v>      -0.02086835      -0.01352084      -0.02721490 </v>
   <v>       0.01135092       0.01487174       0.01972922 </v>
   <v>       0.01413843       0.01745045      -0.03611691 </v>
   <v>       0.01500028      -0.00955217       0.02770915 </v>
   <v>       0.01297949      -0.00625306      -0.03016450 </v>
   <v>       0.04711636      -0.00028697      -0.00115446 </v>
   <v>      -0.00655947      -0.00023548       0.00478799 </v>
   <v>      -0.01580603       0.00290783       0.00090205 </v>
   <v>      -0.00050473       0.01150292       0.00131661 </v>
   <v>       0.01132785      -0.01687264      -0.02711145 </v>
   <v>       0.00125576       0.00553715      -0.00461222 </v>
   <v>       0.00600543       0.00913933       0.00896936 </v>
   <v>      -0.00010081       0.00391971       0.00224334 </v>
   <v>      -0.01046401      -0.03161681      -0.00295679 </v>
   <v>       0.00233021      -0.01618289      -0.05882538 </v>
   <v>      -0.03501601       0.00791061      -0.00844767 </v>
   <v>      -0.00443026      -0.04896196       0.01799239 </v>
   <v>       0.00709596       0.01785889       0.06509857 </v>
   <v>       0.00459157       0.00196721      -0.00764325 </v>
   <v>       0.00362475      -0.01034121       0.00081113 </v>
   <v>      -0.00036706      -0.00222755      -0.03350463 </v>
   <v>       0.00265801      -0.01040799      -0.01816290 </v>
   <v>      -0.00629686       0.05710945      -0.01005307 </v>
   <v>      -0.00245578      -0.00963128       0.03051758 </v>
   <v>       0.00947469       0.00453329      -0.00501024 </v>
   <v>      -0.00453481       0.00432531       0.00131714 </v>
   <v>       0.00100889       0.00028342      -0.04592139 </v>
   <v>      -0.00400029       0.00030313       0.06888598 </v>
   <v>      -0.00834189      -0.00425477       0.00223621 </v>
   <v>       0.00150052      -0.01238724       0.00058926 </v>
   <v>      -0.00819241       0.00081414      -0.02889531 </v>
   <v>       0.00565517      -0.00623607       0.00487503 </v>
   <v>       0.01505885       0.02109775       0.00961612 </v>
   <v>       0.00095582      -0.00672895       0.02983913 </v>
   <v>      -0.01054115      -0.00106849       0.00331102 </v>
   <v>      -0.00305710       0.01144767       0.01125641 </v>
  </varray>
  <varray name="stress" >
   <v>     -64.59696787       0.70001439      -8.70228877 </v>
   <v>       0.70001523     -58.42203759      -6.56807432 </v>
   <v>      -8.70228816      -6.56807461     -70.76943224 </v>
  </varray>
  <energy>
   <i name="e_fr_energy">   -311.18462483 </i>
   <i name="e_wo_entrp">   -311.18462483 </i>
   <i name="e_0_energy">      0.00000000 </i>
  </energy>
  <kpoints>
   <generation param="Monkhorst-Pack">
    <v type="int" name="divisions">       4        4        4 </v>
    <v name="usershift">      0.00000000       0.00000000       0.00000000 </v>
    <v name="genvec1">      0.25000000      -0.00000000       0.00000000 </v>
    <v name="genvec2">     -0.00000000       0.25000000      -0.00000000 </v>
    <v name="genvec3">      0.00000000       0.00000000       0.25000000 </v>
    <v name="shift">      0.50000000       0.50000000       0.50000000 </v>
   </generation>
   <varray name="kpointlist" >
    <v>       0.12500000       0.12500000       0.12500000 </v>
    <v>       0.37500000       0.12500000       0.12500000 </v>
    <v>      -0.37500000       0.12500000       0.12500000 </v>
    <v>      -0.12500000       0.12500000       0.12500000 </v>
    <v>       0.12500000       0.37500000       0.12500000 </v>
    <v>       0.37500000       0.37500000       0.12500000 </v>
    <v>      -0.37500000       0.37500000       0.12500000 </v>
    <v>      -0.12500000       0.37500000       0.12500000 </v>
    <v>       0.12500000      -0.37500000       0.12500000 </v>
    <v>       0.37500000      -0.37500000       0.12500000 </v>
    <v>      -0.37500000      -0.37500000       0.12500000 </v>
    <v>      -0.12500000      -0.37500000       0.12500000 </v>
    <v>       0.12500000      -0.12500000       0.12500000 </v>
    <v>       0.37500000      -0.12500000       0.12500000 </v>
    <v>      -0.37500000      -0.12500000       0.12500000 </v>
    <v>      -0.12500000      -0.12500000       0.12500000 </v>
    <v>       0.12500000       0.12500000       0.37500000 </v>
    <v>       0.37500000       0.12500000       0.37500000 </v>
    <v>      -0.37500000       0.12500000       0.37500000 </v>
    <v>      -0.12500000       0.12500000       0.37500000 </v>
    <v>       0.12500000       0.37500000       0.37500000 </v>
    <v>       0.37500000       0.37500000       0.37500000 </v>
    <v>      -0.37500000       0.37500000       0.37500000 </v>
    <v>      -0.12500000       0.37500000       0.37500000 </v>
    <v>       0.12500000      -0.37500000       0.37500000 </v>
    <v>       0.37500000      -0.37500000       0.37500000 </v>
    <v>      -0.37500000      -0.37500000       0.37500000 </v>
    <v>      -0.12500000      -0.37500000       0.37500000 </v>
    <v>       0.12500000      -0.12500000       0.37500000 </v>
    <v>       0.37500000      -0.12500000       0.37500000 </v>
    <v>      -0.37500000      -0.12500000       0.37500000 </v>
    <v>      -0.12500000      -0.12500000       0.37500000 </v>
   </varray>
   <varray name="weights" >
    <v>       0.03125000 </v>
    <v>       0.03125000 </v>
    <v>       0.03125000 </v>
    <v>       0.03125000 </v>
    <v>       0.03125000 </v>
    <v>       0.03125000 </v>
    <v>       0.03125000 </v>
    <v>       0.03125000 </v>
    <v>       0.03125000 </v>
    <v>       0.03125000 </v>
    <v>       0.03125000 </v>
    <v>       0.03125000 </v>
    <v>       0.03125000 </v>
    <v>       0.03125000 </v>
    <v>       0.03125000 </v>
    <v>       0.03125000 </v>
    <v>       0.03125000 </v>
    <v>       0.03125000 </v>
    <v>       0.03125000 </v>
    <v>       0.03125000 </v>
    <v>       0.03125000 </v>
    <v>       0.03125000 </v>
    <v>       0.03125000 </v>
    <v>       0.03125000 </v>
    <v>       0.03125000 </v>
    <v>       0.03125000 </v>
    <v>       0.03125000 </v>
    <v>       0.03125000 </v>
    <v>       0.03125000 </v>
    <v>       0.03125000 </v>
    <v>       0.03125000 </v>
    <v>       0.03125000 </v>
   </varray>
   <varray name="tetrahedronlist"  type="int" >
    <v type="int" >        2        1        2        5       18 </v>
    <v type="int" >        2        2        5        6       18 </v>
    <v type="int" >        2        5        6       18       22 </v>
    <v type="int" >        2        1        5       17       18 </v>
    <v type="int" >        2        5       17       18       21 </v>
    <v type="int" >        2        5       18       21       22 </v>
    <v type="int" >        2        2        3        6       19 </v>
    <v type="int" >        2        3        6        7       19 </v>
    <v type="int" >        2        6        7       19       23 </v>
    <v type="int" >        2        2        6       18       19 </v>
    <v type="int" >        2        6       18       19       22 </v>
    <v type="int" >        2        6       19       22       23 </v>
    <v type="int" >        2        3        4        7       20 </v>
    <v type="int" >        2        4        7        8       20 </v>
    <v type="int" >        2        7        8       20       24 </v>
    <v type="int" >        2        3        7       19       20 </v>
    <v type="int" >        2        7       19       20       23 </v>
    <v type="int" >        2        7       20       23       24 </v>
    <v type="int" >        2        1        4        8       17 </v>
    <v type="int" >        2        1        5        8       17 </v>
    <v type="int" >        2        5        8       17       21 </v>
    <v type="int" >        2        4        8       17       20 </v>
    <v type="int" >        2        8       17       20       24 </v>
    <v type="int" >        2        8       17       21       24 </v>
    <v type="int" >        2        5        6        9       22 </v>
    <v type="int" >        2        6        9       10       22 </v>
    <v type="int" >        2        9       10       22       26 </v>
    <v type="int" >        2        5        9       21       22 </v>
    <v type="int" >        2        9       21       22       25 </v>
    <v type="int" >        2        9       22       25       26 </v>
    <v type="int" >        2        6        7       10       23 </v>
    <v type="int" >        2        7       10       11       23 </v>
    <v type="int" >        2       10       11       23       27 </v>
    <v type="int" >        2        6       10       22       23 </v>
    <v type="int" >        2       10       22       23       26 </v>
    <v type="int" >        2       10       23       26       27 </v>
    <v type="int" >        2        7        8       11       24 </v>
    <v type="int" >        2        8       11       12       24 </v>
    <v type="int" >        2       11       12       24       28 </v>
    <v type="int" >        2        7       11       23       24 </v>
    <v type="int" >        2       11       23       24       27 </v>
    <v type="int" >        2       11       24       27       28 </v>
    <v type="int" >        2        5        8       12       21 </v>
    <v type="int" >        2        5        9       12       21 </v>
    <v type="int" >        2        9       12       21       25 </v>
    <v type="int" >        2        8       12       21       24 </v>
    <v type="int" >        2       12       21       24       28 </v>
    <v type="int" >        2       12       21       25       28 </v>
    <v type="int" >        2        9       10       13       26 </v>
    <v type="int" >        2       10       13       14       26 </v>
    <v type="int" >        2       13       14       26       30 </v>
    <v type="int" >        2        9       13       25       26 </v>
    <v type="int" >        2       13       25       26       29 </v>
    <v type="int" >        2       13       26       29       30 </v>
    <v type="int" >        2       10       11       14       27 </v>
    <v type="int" >        2       11       14       15       27 </v>
    <v type="int" >        2       14       15       27       31 </v>
    <v type="int" >        2       10       14       26       27 </v>
    <v type="int" >        2       14       26       27       30 </v>
    <v type="int" >        2       14       27       30       31 </v>
    <v type="int" >        2       11       12       15       28 </v>
    <v type="int" >        2       12       15       16       28 </v>
    <v type="int" >        2       15       16       28       32 </v>
    <v type="int" >        2       11       15       27       28 </v>
    <v type="int" >        2       15       27       28       31 </v>
    <v type="int" >        2       15       28       31       32 </v>
    <v type="int" >        2        9       12       16       25 </v>
    <v type="int" >        2        9       13       16       25 </v>
    <v type="int" >        2       13       16       25       29 </v>
    <v type="int" >        2       12       16       25       28 </v>
    <v type="int" >        2       16       25       28       32 </v>
    <v type="int" >        2       16       25       29       32 </v>
    <v type="int" >        2        1       13       14       30 </v>
    <v type="int" >        2        1        2       14       30 </v>
    <v type="int" >        2        1        2       18       30 </v>
    <v type="int" >        2        1       13       29       30 </v>
    <v type="int" >        2        1       17       29       30 </v>
    <v type="int" >        2        1       17       18       30 </v>
    <v type="int" >        2        2       14       15       31 </v>
    <v type="int" >        2        2        3       15       31 </v>
    <v type="int" >        2        2        3       19       31 </v>
    <v type="int" >        2        2       14       30       31 </v>
    <v type="int" >        2        2       18       30       31 </v>
    <v type="int" >        2        2       18       19       31 </v>
    <v type="int" >        2        3       15       16       32 </v>
    <v type="int" >        2        3        4       16       32 </v>
    <v type="int" >        2        3        4       20       32 </v>
    <v type="int" >        2        3       15       31       32 </v>
    <v type="int" >        2        3       19       31       32 </v>
    <v type="int" >        2        3       19       20       32 </v>
    <v type="int" >        2        4       13       16       29 </v>
    <v type="int" >        2        1        4       13       29 </v>
    <v type="int" >        2        1        4       17       29 </v>
    <v type="int" >        2        4       16       29       32 </v>
    <v type="int" >        2        4       20       29       32 </v>
    <v type="int" >        2        4       17       20       29 </v>
    <v type="int" >        2       17       18       21       31 </v>
    <v type="int" >        2       18       21       22       31 </v>
    <v type="int" >        2       21       22       27       31 </v>
    <v type="int" >        2       17       21       31       32 </v>
    <v type="int" >        2       21       28       31       32 </v>
    <v type="int" >        2       21       27       28       31 </v>
    <v type="int" >        2       18       19       22       30 </v>
    <v type="int" >        2       19       22       23       30 </v>
    <v type="int" >        2       22       23       26       30 </v>
    <v type="int" >        2       18       22       30       31 </v>
    <v type="int" >        2       22       27       30       31 </v>
    <v type="int" >        2       22       26       27       30 </v>
    <v type="int" >        2       19       20       23       29 </v>
    <v type="int" >        2       20       23       24       29 </v>
    <v type="int" >        2       23       24       25       29 </v>
    <v type="int" >        2       19       23       29       30 </v>
    <v type="int" >        2       23       26       29       30 </v>
    <v type="int" >        2       23       25       26       29 </v>
    <v type="int" >        2       17       20       24       32 </v>
    <v type="int" >        2       17       21       24       32 </v>
    <v type="int" >        2       21       24       28       32 </v>
    <v type="int" >        2       20       24       29       32 </v>
    <v type="int" >        2       24       25       29       32 </v>
    <v type="int" >        2       24       25       28       32 </v>
    <v type="int" >        2       21       22       25       27 </v>
    <v type="int" >        2       22       25       26       27 </v>
    <v type="int" >        2       23       25       26       27 </v>
    <v type="int" >        2       21       25       27       28 </v>
    <v type="int" >        2       24       25       27       28 </v>
    <v type="int" >        2       23       24       25       27 </v>
    <v type="int" >        2       22       23       26       26 </v>
    <v type="int" >        2       23       26       26       27 </v>
    <v type="int" >        2       22       26       26       27 </v>
    <v type="int" >        2       21       24       28       28 </v>
    <v type="int" >        2       21       25       28       28 </v>
    <v type="int" >        2       24       25       28       28 </v>
    <v type="int" >        2       17       19       29       30 </v>
    <v type="int" >        2       17       18       19       30 </v>
    <v type="int" >        2       17       18       19       31 </v>
    <v type="int" >        2       17       19       20       29 </v>
    <v type="int" >        2       17       19       20       32 </v>
    <v type="int" >        2       17       19       31       32 </v>
    <v type="int" >        2       18       18       30       31 </v>
    <v type="int" >        2       18       18       19       31 </v>
    <v type="int" >        2       18       18       19       30 </v>
    <v type="int" >        2       20       20       29       32 </v>
    <v type="int" >        2       17       20       20       29 </v>
    <v type="int" >        2       17       20       20       32 </v>
    <v type="int" >        2        2       12       15       16 </v>
    <v type="int" >        2        2       11       12       15 </v>
    <v type="int" >        2        2        6       11       12 </v>
    <v type="int" >        2        1        2       12       16 </v>
    <v type="int" >        2        1        2        5       12 </v>
    <v type="int" >        2        2        5        6       12 </v>
    <v type="int" >        2        3       11       14       15 </v>
    <v type="int" >        2        3       10       11       14 </v>
    <v type="int" >        2        3        7       10       11 </v>
    <v type="int" >        2        2        3       11       15 </v>
    <v type="int" >        2        2        3        6       11 </v>
    <v type="int" >        2        3        6        7       11 </v>
    <v type="int" >        2        4       10       13       14 </v>
    <v type="int" >        2        4        9       10       13 </v>
    <v type="int" >        2        4        8        9       10 </v>
    <v type="int" >        2        3        4       10       14 </v>
    <v type="int" >        2        3        4        7       10 </v>
    <v type="int" >        2        4        7        8       10 </v>
    <v type="int" >        2        1        9       13       16 </v>
    <v type="int" >        2        1        9       12       16 </v>
    <v type="int" >        2        1        5        9       12 </v>
    <v type="int" >        2        1        4        9       13 </v>
    <v type="int" >        2        1        4        8        9 </v>
    <v type="int" >        2        1        5        8        9 </v>
    <v type="int" >        2        6        8       11       12 </v>
    <v type="int" >        2        6        7        8       11 </v>
    <v type="int" >        2        6        7        8       10 </v>
    <v type="int" >        2        5        6        8       12 </v>
    <v type="int" >        2        5        6        8        9 </v>
    <v type="int" >        2        6        8        9       10 </v>
    <v type="int" >        2        7        7       10       11 </v>
    <v type="int" >        2        6        7        7       10 </v>
    <v type="int" >        2        6        7        7       11 </v>
    <v type="int" >        2        5        5        9       12 </v>
    <v type="int" >        2        5        5        8       12 </v>
    <v type="int" >        2        5        5        8        9 </v>
    <v type="int" >        2        3        4       14       16 </v>
    <v type="int" >        2        3       14       15       16 </v>
    <v type="int" >        2        2       14       15       16 </v>
    <v type="int" >        2        4       13       14       16 </v>
    <v type="int" >        2        1       13       14       16 </v>
    <v type="int" >        2        1        2       14       16 </v>
    <v type="int" >        2        2        3       15       15 </v>
    <v type="int" >        2        2       14       15       15 </v>
    <v type="int" >        2        3       14       15       15 </v>
    <v type="int" >        2        1        4       13       13 </v>
    <v type="int" >        2        4       13       13       16 </v>
    <v type="int" >        2        1       13       13       16 </v>
   </varray>
   <i name="volumeweight">      0.00260417 </i>
  </kpoints>
  <scstep>
   <time name="total">   28.72   29.22</time>
   <energy>
    <i name="e_fr_energy">   -208.33456036 </i>
    <i name="e_wo_entrp">   -208.33456036 </i>
    <i name="e_0_energy">   -208.33456036 </i>
   </energy>
  </scstep>
  <scstep>
   <time name="total">   40.46   41.14</time>
   <energy>
    <i name="e_fr_energy">   -223.99023355 </i>
    <i name="e_wo_entrp">   -223.99023355 </i>
    <i name="e_0_energy">   -223.99023355 </i>
   </energy>
  </scstep>
  <scstep>
   <time name="total">   39.24   39.67</time>
   <energy>
    <i name="e_fr_energy">   -224.35518830 </i>
    <i name="e_wo_entrp">   -224.35518830 </i>
    <i name="e_0_energy">   -224.35518830 </i>
   </energy>
  </scstep>
  <scstep>
   <time name="total">   40.62   40.91</time>
   <energy>
    <i name="e_fr_energy">   -224.55147331 </i>
    <i name="e_wo_entrp">   -224.55147331 </i>
    <i name="e_0_energy">   -224.55147331 </i>
   </energy>
  </scstep>
  <scstep>
   <time name="total">   40.09   40.31</time>
   <energy>
    <i name="e_fr_energy">   -224.57432067 </i>
    <i name="e_wo_entrp">   -224.57432067 </i>
    <i name="e_0_energy">   -224.57432067 </i>
   </energy>
  </scstep>
  <kpoints>
   <generation param="Monkhorst-Pack">
    <v type="int" name="divisions">       4        4        4 </v>
    <v name="usershift">      0.00000000       0.00000000       0.00000000 </v>
    <v name="genvec1">      0.25000000      -0.00000000       0.00000000 </v>
    <v name="genvec2">     -0.00000000       0.25000000      -0.00000000 </v>
    <v name="genvec3">      0.00000000       0.00000000       0.25000000 </v>
    <v name="shift">      0.50000000       0.50000000       0.50000000 </v>
   </generation>
   <varray name="kpointlist" >
    <v>       0.12500000       0.12500000       0.12500000 </v>
    <v>       0.37500000       0.12500000       0.12500000 </v>
    <v>      -0.37500000       0.12500000       0.12500000 </v>
    <v>      -0.12500000       0.12500000       0.12500000 </v>
    <v>       0.12500000       0.37500000       0.12500000 </v>
    <v>       0.37500000       0.37500000       0.12500000 </v>
    <v>      -0.37500000       0.37500000       0.12500000 </v>
    <v>      -0.12500000       0.37500000       0.12500000 </v>
    <v>       0.12500000      -0.37500000       0.12500000 </v>
    <v>       0.37500000      -0.37500000       0.12500000 </v>
    <v>      -0.37500000      -0.37500000       0.12500000 </v>
    <v>      -0.12500000      -0.37500000       0.12500000 </v>
    <v>       0.12500000      -0.12500000       0.12500000 </v>
    <v>       0.37500000      -0.12500000       0.12500000 </v>
    <v>      -0.37500000      -0.12500000       0.12500000 </v>
    <v>      -0.12500000      -0.12500000       0.12500000 </v>
    <v>       0.12500000       0.12500000       0.37500000 </v>
    <v>       0.37500000       0.12500000       0.37500000 </v>
    <v>      -0.37500000       0.12500000       0.37500000 </v>
    <v>      -0.12500000       0.12500000       0.37500000 </v>
    <v>       0.12500000       0.37500000       0.37500000 </v>
    <v>       0.37500000       0.37500000       0.37500000 </v>
    <v>      -0.37500000       0.37500000       0.37500000 </v>
    <v>      -0.12500000       0.37500000       0.37500000 </v>
    <v>       0.12500000      -0.37500000       0.37500000 </v>
    <v>       0.37500000      -0.37500000       0.37500000 </v>
    <v>      -0.37500000      -0.37500000       0.37500000 </v>
    <v>      -0.12500000      -0.37500000       0.37500000 </v>
    <v>       0.12500000      -0.12500000       0.37500000 </v>
    <v>       0.37500000      -0.12500000       0.37500000 </v>
    <v>      -0.37500000      -0.12500000       0.37500000 </v>
    <v>      -0.12500000      -0.12500000       0.37500000 </v>
   </varray>
   <varray name="weights" >
    <v>       0.03125000 </v>
    <v>       0.03125000 </v>
    <v>       0.03125000 </v>
    <v>       0.03125000 </v>
    <v>       0.03125000 </v>
    <v>       0.03125000 </v>
    <v>       0.03125000 </v>
    <v>       0.03125000 </v>
    <v>       0.03125000 </v>
    <v>       0.03125000 </v>
    <v>       0.03125000 </v>
    <v>       0.03125000 </v>
    <v>       0.03125000 </v>
    <v>       0.03125000 </v>
    <v>       0.03125000 </v>
    <v>       0.03125000 </v>
    <v>       0.03125000 </v>
    <v>       0.03125000 </v>
    <v>       0.03125000 </v>
    <v>       0.03125000 </v>
    <v>       0.03125000 </v>
    <v>       0.03125000 </v>
    <v>       0.03125000 </v>
    <v>       0.03125000 </v>
    <v>       0.03125000 </v>
    <v>       0.03125000 </v>
    <v>       0.03125000 </v>
    <v>       0.03125000 </v>
    <v>       0.03125000 </v>
    <v>       0.03125000 </v>
    <v>       0.03125000 </v>
    <v>       0.03125000 </v>
   </varray>
   <varray name="tetrahedronlist"  type="int" >
    <v type="int" >        2        1        2        5       18 </v>
    <v type="int" >        2        2        5        6       18 </v>
    <v type="int" >        2        5        6       18       22 </v>
    <v type="int" >        2        1        5       17       18 </v>
    <v type="int" >        2        5       17       18       21 </v>
    <v type="int" >        2        5       18       21       22 </v>
    <v type="int" >        2        2        3        6       19 </v>
    <v type="int" >        2        3        6        7       19 </v>
    <v type="int" >        2        6        7       19       23 </v>
    <v type="int" >        2        2        6       18       19 </v>
    <v type="int" >        2        6       18       19       22 </v>
    <v type="int" >        2        6       19       22       23 </v>
    <v type="int" >        2        3        4        7       20 </v>
    <v type="int" >        2        4        7        8       20 </v>
    <v type="int" >        2        7        8       20       24 </v>
    <v type="int" >        2        3        7       19       20 </v>
    <v type="int" >        2        7       19       20       23 </v>
    <v type="int" >        2        7       20       23       24 </v>
    <v type="int" >        2        1        4        8       17 </v>
    <v type="int" >        2        1        5        8       17 </v>
    <v type="int" >        2        5        8       17       21 </v>
    <v type="int" >        2        4        8       17       20 </v>
    <v type="int" >        2        8       17       20       24 </v>
    <v type="int" >        2        8       17       21       24 </v>
    <v type="int" >        2        5        6        9       22 </v>
    <v type="int" >        2        6        9       10       22 </v>
    <v type="int" >        2        9       10       22       26 </v>
    <v type="int" >        2        5        9       21       22 </v>
    <v type="int" >        2        9       21       22       25 </v>
    <v type="int" >        2        9       22       25       26 </v>
    <v type="int" >        2        6        7       10       23 </v>
    <v type="int" >        2        7       10       11       23 </v>
    <v type="int" >        2       10       11       23       27 </v>
    <v type="int" >        2        6       10       22       23 </v>
    <v type="int" >        2       10       22       23       26 </v>
    <v type="int" >        2       10       23       26       27 </v>
    <v type="int" >        2        7        8       11       24 </v>
    <v type="int" >        2        8       11       12       24 </v>
    <v type="int" >        2       11       12       24       28 </v>
    <v type="int" >        2        7       11       23       24 </v>
    <v type="int" >        2       11       23       24       27 </v>
    <v type="int" >        2       11       24       27       28 </v>
    <v type="int" >        2        5        8       12       21 </v>
    <v type="int" >        2        5        9       12       21 </v>
    <v type="int" >        2        9       12       21       25 </v>
    <v type="int" >        2        8       12       21       24 </v>
    <v type="int" >        2       12       21       24       28 </v>
    <v type="int" >        2       12       21       25       28 </v>
    <v type="int" >        2        9       10       13       26 </v>
    <v type="int" >        2       10       13       14       26 </v>
    <v type="int" >        2       13       14       26       30 </v>
    <v type="int" >        2        9       13       25       26 </v>
    <v type="int" >        2       13       25       26       29 </v>
    <v type="int" >        2       13       26       29       30 </v>
[...]
       <r>     6.3707    12.8714   147.5131 </r>
       <r>     6.5169    32.5092   149.3419 </r>
       <r>     6.6631    12.2941   151.9742 </r>
       <r>     6.8093    14.6164   154.6594 </r>
       <r>     6.9555    14.1295   157.6975 </r>
       <r>     7.1017    19.1893   160.6434 </r>
       <r>     7.2479    13.4216   163.3526 </r>
       <r>     7.3941     6.4762   164.5341 </r>
       <r>     7.5403     0.0000   165.0000 </r>
       <r>     7.6866     0.0000   165.0000 </r>
       <r>     7.8328     1.6377   165.0337 </r>
       <r>     7.9790    10.3285   165.8148 </r>
       <r>     8.1252    12.2093   167.3609 </r>
       <r>     8.2714     7.2099   168.8595 </r>
       <r>     8.4176    18.5908   170.0428 </r>
       <r>     8.5638     6.5617   171.2109 </r>
       <r>     8.7100     5.0316   172.1751 </r>
       <r>     8.8562     5.8446   172.9152 </r>
       <r>     9.0024     7.6272   173.7746 </r>
       <r>     9.1486    16.7270   174.9836 </r>
       <r>     9.2949     8.6457   176.6751 </r>
       <r>     9.4411     8.4762   178.0553 </r>
       <r>     9.5873    19.9008   180.1134 </r>
       <r>     9.7335    23.2034   182.7369 </r>
       <r>     9.8797    23.3782   185.7574 </r>
       <r>    10.0259    24.4371   188.8316 </r>
       <r>    10.1721    10.1680   191.8476 </r>
       <r>    10.3183     0.0000   192.0000 </r>
       <r>    10.4645     0.0000   192.0000 </r>
       <r>    10.6107     0.0000   192.0000 </r>
       <r>    10.7569     0.0000   192.0000 </r>
       <r>    10.9032     0.0000   192.0000 </r>
       <r>    11.0494     0.0000   192.0000 </r>
       <r>    11.1956     0.0000   192.0000 </r>
       <r>    11.3418     0.0000   192.0000 </r>
       <r>    11.4880     0.0000   192.0000 </r>
       <r>    11.6342     0.0000   192.0000 </r>
       <r>    11.7804     0.0000   192.0000 </r>
       <r>    11.9266     0.0000   192.0000 </r>
       <r>    12.0728     0.0000   192.0000 </r>
       <r>    12.2190     0.0000   192.0000 </r>
      </set>
      <set comment="spin 2">
       <r>   -31.6438     0.0000     0.0000 </r>
       <r>   -31.4976     0.0000     0.0000 </r>
       <r>   -31.3514     0.0000     0.0000 </r>
       <r>   -31.2052     0.0000     0.0000 </r>
       <r>   -31.0590     0.0000     0.0000 </r>
       <r>   -30.9127     0.0000     0.0000 </r>
       <r>   -30.7665     0.0000     0.0000 </r>
       <r>   -30.6203     0.0000     0.0000 </r>
       <r>   -30.4741     0.0000     0.0000 </r>
       <r>   -30.3279     0.0000     0.0000 </r>
       <r>   -30.1817     0.0000     0.0000 </r>
       <r>   -30.0355     0.0000     0.0000 </r>
       <r>   -29.8893     0.0000     0.0000 </r>
       <r>   -29.7431     0.0000     0.0000 </r>
       <r>   -29.5969     0.0000     0.0000 </r>
       <r>   -29.4506     0.0000     1.0000 </r>
       <r>   -29.3044     0.0000     3.0000 </r>
       <r>   -29.1582     0.0000    15.0000 </r>
       <r>   -29.0120     0.0000    24.0000 </r>
       <r>   -28.8658     0.0000    24.0000 </r>
       <r>   -28.7196     0.0000    24.0000 </r>
       <r>   -28.5734     0.0000    24.0000 </r>
       <r>   -28.4272     0.0000    24.0000 </r>
       <r>   -28.2810     0.0000    24.0000 </r>
       <r>   -28.1348     0.0000    24.0000 </r>
       <r>   -27.9886     0.0000    24.0000 </r>
       <r>   -27.8423     0.0000    24.0000 </r>
       <r>   -27.6961     0.0000    24.0000 </r>
       <r>   -27.5499     0.0000    24.0000 </r>
       <r>   -27.4037     0.0000    24.0000 </r>
       <r>   -27.2575     0.0000    24.0000 </r>
       <r>   -27.1113     0.0000    24.0000 </r>
       <r>   -26.9651     0.0000    24.0000 </r>
       <r>   -26.8189     0.0000    24.0000 </r>
       <r>   -26.6727     0.0000    24.0000 </r>
       <r>   -26.5265     0.0000    24.0000 </r>
       <r>   -26.3803     0.0000    24.0000 </r>
       <r>   -26.2340     0.0000    24.0000 </r>
       <r>   -26.0878     0.0000    24.0000 </r>
       <r>   -25.9416     0.0000    24.0000 </r>
       <r>   -25.7954     0.0000    24.0000 </r>
       <r>   -25.6492     0.0000    24.0000 </r>
       <r>   -25.5030     0.0000    24.0000 </r>
       <r>   -25.3568     0.0000    24.0000 </r>
       <r>   -25.2106     0.0000    24.0000 </r>
       <r>   -25.0644     0.0000    24.0000 </r>
       <r>   -24.9182     0.0000    24.0000 </r>
       <r>   -24.7719     0.0000    24.0000 </r>
       <r>   -24.6257     0.0000    24.0000 </r>
       <r>   -24.4795     0.0000    24.0000 </r>
       <r>   -24.3333     0.0000    24.0000 </r>
       <r>   -24.1871     0.0000    24.0000 </r>
       <r>   -24.0409     0.0000    24.0000 </r>
       <r>   -23.8947     0.0000    24.0000 </r>
       <r>   -23.7485     0.0000    24.0000 </r>
       <r>   -23.6023     0.0000    24.0000 </r>
       <r>   -23.4561     0.0000    24.0000 </r>
       <r>   -23.3099     0.0000    24.0000 </r>
       <r>   -23.1636     0.0000    24.0000 </r>
       <r>   -23.0174     0.0000    24.0000 </r>
       <r>   -22.8712     0.0000    24.0000 </r>
       <r>   -22.7250     0.0000    24.0000 </r>
       <r>   -22.5788     0.0000    24.0000 </r>
       <r>   -22.4326     0.0000    24.0000 </r>
       <r>   -22.2864     0.0000    24.0000 </r>
       <r>   -22.1402     0.0000    24.0000 </r>
       <r>   -21.9940     0.0000    24.0000 </r>
       <r>   -21.8478     0.0000    24.0000 </r>
       <r>   -21.7015     0.0000    24.0000 </r>
       <r>   -21.5553     0.0000    24.0000 </r>
       <r>   -21.4091     0.0000    24.0000 </r>
       <r>   -21.2629     0.0000    24.0000 </r>
       <r>   -21.1167     0.0000    24.0000 </r>
       <r>   -20.9705     0.0000    24.0000 </r>
       <r>   -20.8243     0.0000    24.0000 </r>
       <r>   -20.6781     0.0000    24.0000 </r>
       <r>   -20.5319     0.0000    24.0000 </r>
       <r>   -20.3857     0.0000    24.0000 </r>
       <r>   -20.2395     0.0000    24.0000 </r>
       <r>   -20.0932     0.0000    24.0000 </r>
       <r>   -19.9470     0.0000    24.0000 </r>
       <r>   -19.8008     0.0000    24.0000 </r>
       <r>   -19.6546     0.0000    24.0000 </r>
       <r>   -19.5084     0.0000    24.0000 </r>
       <r>   -19.3622     0.0000    24.0000 </r>
       <r>   -19.2160     0.0000    24.0000 </r>
       <r>   -19.0698     0.0000    24.0000 </r>
       <r>   -18.9236     0.0000    24.0000 </r>
       <r>   -18.7774     0.0000    24.0000 </r>
       <r>   -18.6311     0.0000    24.0000 </r>
       <r>   -18.4849     0.0000    24.0000 </r>
       <r>   -18.3387     0.0000    24.0000 </r>
       <r>   -18.1925     0.0000    24.0000 </r>
       <r>   -18.0463     0.0000    24.0000 </r>
       <r>   -17.9001     0.0000    24.0000 </r>
       <r>   -17.7539     0.0000    24.0000 </r>
       <r>   -17.6077     0.0000    24.0000 </r>
       <r>   -17.4615     0.0000    24.0000 </r>
       <r>   -17.3153     0.0000    24.0000 </r>
       <r>   -17.1691     0.0000    24.0000 </r>
       <r>   -17.0228     0.0000    24.0000 </r>
       <r>   -16.8766     0.0000    24.0000 </r>
       <r>   -16.7304     0.0000    24.0000 </r>
       <r>   -16.5842    22.7109    27.4772 </r>
       <r>   -16.4380    21.8653    32.8072 </r>
       <r>   -16.2918    85.6586    41.3668 </r>
       <r>   -16.1456     0.0000    48.0000 </r>
       <r>   -15.9994     0.0000    48.0000 </r>
       <r>   -15.8532     0.0000    48.0000 </r>
       <r>   -15.7070     0.0000    48.0000 </r>
       <r>   -15.5608     0.0000    48.0000 </r>
       <r>   -15.4145     0.0000    48.0000 </r>
       <r>   -15.2683     0.0000    48.0000 </r>
       <r>   -15.1221     0.0000    48.0000 </r>
       <r>   -14.9759     0.0000    48.0000 </r>
       <r>   -14.8297     0.0000    48.0000 </r>
       <r>   -14.6835     0.0000    48.0000 </r>
       <r>   -14.5373     0.0000    48.0000 </r>
       <r>   -14.3911     0.0000    48.0000 </r>
       <r>   -14.2449     0.0000    48.0000 </r>
       <r>   -14.0987     0.0000    48.0000 </r>
       <r>   -13.9524     3.1858    48.0475 </r>
       <r>   -13.8062     0.0000    49.0000 </r>
       <r>   -13.6600     0.2523    49.0001 </r>
       <r>   -13.5138     7.6339    49.9803 </r>
       <r>   -13.3676     5.2629    50.7615 </r>
       <r>   -13.2214     9.7143    51.2742 </r>
       <r>   -13.0752    28.1037    53.1602 </r>
       <r>   -12.9290    17.7405    55.8800 </r>
       <r>   -12.7828    49.3237    58.7409 </r>
       <r>   -12.6366    27.7368    63.6211 </r>
       <r>   -12.4904    26.9641    69.1098 </r>
       <r>   -12.3441     0.0000    71.0000 </r>
       <r>   -12.1979     0.0000    71.0000 </r>
       <r>   -12.0517     0.0000    71.0000 </r>
       <r>   -11.9055     0.0000    71.0000 </r>
       <r>   -11.7593     0.0000    71.0000 </r>
       <r>   -11.6131     0.0000    71.0000 </r>
       <r>   -11.4669     0.0000    71.0000 </r>
       <r>   -11.3207     0.0000    71.0000 </r>
       <r>   -11.1745     0.0000    71.0000 </r>
       <r>   -11.0283     0.0000    71.0000 </r>
       <r>   -10.8820     0.0000    71.0000 </r>
       <r>   -10.7358     0.0000    71.0000 </r>
       <r>   -10.5896     0.0000    71.0000 </r>
       <r>   -10.4434     0.0000    71.0000 </r>
       <r>   -10.2972     0.0000    71.0000 </r>
       <r>   -10.1510     0.0000    71.0000 </r>
       <r>   -10.0048     0.0000    71.0000 </r>
       <r>    -9.8586     0.0000    71.0000 </r>
       <r>    -9.7124     0.0000    71.0000 </r>
       <r>    -9.5662     0.0000    71.0000 </r>
       <r>    -9.4200     0.0000    71.0000 </r>
       <r>    -9.2737     0.0000    71.0000 </r>
       <r>    -9.1275     0.0000    71.0000 </r>
       <r>    -8.9813     0.0000    71.0000 </r>
       <r>    -8.8351     0.0000    71.0000 </r>
       <r>    -8.6889     0.0000    71.0000 </r>
       <r>    -8.5427     0.0000    71.0000 </r>
       <r>    -8.3965     0.0000    71.0000 </r>
       <r>    -8.2503     0.0000    71.0000 </r>
       <r>    -8.1041     0.0000    71.0000 </r>
       <r>    -7.9579     0.0000    71.0000 </r>
       <r>    -7.8117     0.0000    71.0000 </r>
       <r>    -7.6654     0.0000    71.0000 </r>
       <r>    -7.5192     0.0000    71.0000 </r>
       <r>    -7.3730     0.0000    71.0000 </r>
       <r>    -7.2268     0.0000    71.0000 </r>
       <r>    -7.0806     0.0000    71.0000 </r>
       <r>    -6.9344     0.0000    71.0000 </r>
       <r>    -6.7882     0.0000    71.0000 </r>
       <r>    -6.6420     0.0000    71.0000 </r>
       <r>    -6.4958     0.0000    71.0000 </r>
       <r>    -6.3496     0.0000    71.0000 </r>
       <r>    -6.2033     0.0000    71.0000 </r>
       <r>    -6.0571     0.0000    71.0000 </r>
       <r>    -5.9109     0.0000    71.0000 </r>
       <r>    -5.7647     0.0000    71.0000 </r>
       <r>    -5.6185     0.0000    71.0000 </r>
       <r>    -5.4723     0.0000    71.0000 </r>
       <r>    -5.3261     0.0000    71.0000 </r>
       <r>    -5.1799     0.0000    71.0000 </r>
       <r>    -5.0337     0.0000    71.0000 </r>
       <r>    -4.8875     0.0000    71.0000 </r>
       <r>    -4.7413     0.0000    71.0000 </r>
       <r>    -4.5950     0.0000    71.0000 </r>
       <r>    -4.4488     0.0000    71.0000 </r>
       <r>    -4.3026     0.0000    71.0000 </r>
       <r>    -4.1564     0.0000    71.0000 </r>
       <r>    -4.0102     0.0000    71.0000 </r>
       <r>    -3.8640     0.0000    71.0000 </r>
       <r>    -3.7178     0.0000    71.0000 </r>
       <r>    -3.5716     0.0000    71.0000 </r>
       <r>    -3.4254     0.0000    71.0000 </r>
       <r>    -3.2792     0.0000    71.0000 </r>
       <r>    -3.1329     0.0000    71.0000 </r>
       <r>    -2.9867     0.0000    71.0000 </r>
       <r>    -2.8405     0.0000    71.0000 </r>
       <r>    -2.6943     0.0000    71.0000 </r>
       <r>    -2.5481     0.0000    71.0000 </r>
       <r>    -2.4019     0.0000    71.0000 </r>
       <r>    -2.2557     0.0000    71.0000 </r>
       <r>    -2.1095     0.0000    71.0000 </r>
       <r>    -1.9633     0.0000    71.0000 </r>
       <r>    -1.8171     0.0000    71.0000 </r>
       <r>    -1.6709     0.0000    71.0000 </r>
       <r>    -1.5246     0.0000    71.0000 </r>
       <r>    -1.3784     0.0000    71.0000 </r>
       <r>    -1.2322     0.0000    71.0000 </r>
       <r>    -1.0860     0.0000    71.0000 </r>
       <r>    -0.9398     0.0000    71.0000 </r>
       <r>    -0.7936    12.2850    72.6041 </r>
       <r>    -0.6474    31.3255    75.4563 </r>
       <r>    -0.5012    22.5138    78.8870 </r>
       <r>    -0.3550    19.8147    81.8286 </r>
       <r>    -0.2088    15.9231    84.6988 </r>
       <r>    -0.0626    17.4400    87.2081 </r>
       <r>     0.0837    11.9143    89.8252 </r>
       <r>     0.2299    14.2704    92.4195 </r>
       <r>     0.3761    19.6854    94.9981 </r>
       <r>     0.5223    21.9317    97.9455 </r>
       <r>     0.6685    21.1330   101.3238 </r>
       <r>     0.8147    21.2926   104.4722 </r>
       <r>     0.9609    15.5668   107.0075 </r>
       <r>     1.1071    12.9777   108.9620 </r>
       <r>     1.2533    12.0567   110.8586 </r>
       <r>     1.3995    12.1126   112.6582 </r>
       <r>     1.5458    12.2112   114.5968 </r>
       <r>     1.6920    12.0250   116.4747 </r>
       <r>     1.8382    13.4231   118.5764 </r>
       <r>     1.9844    13.2076   120.9046 </r>
       <r>     2.1306    18.9647   123.3965 </r>
       <r>     2.2768    23.5673   126.3865 </r>
       <r>     2.4230    24.0485   129.6811 </r>
       <r>     2.5692    18.4343   133.0074 </r>
       <r>     2.7154    18.1637   136.1446 </r>
       <r>     2.8616    18.0173   138.8028 </r>
       <r>     3.0078     0.0000   140.0000 </r>
       <r>     3.1541     0.0000   140.0000 </r>
       <r>     3.3003     0.0000   140.0000 </r>
       <r>     3.4465     0.0000   140.0000 </r>
       <r>     3.5927     0.0000   140.0000 </r>
       <r>     3.7389     0.0000   140.0000 </r>
       <r>     3.8851     0.0000   140.0000 </r>
       <r>     4.0313     0.0000   140.0000 </r>
       <r>     4.1775     0.0000   140.0000 </r>
       <r>     4.3237     0.0000   140.0000 </r>
       <r>     4.4699     0.0000   140.0000 </r>
       <r>     4.6162     0.0000   140.0000 </r>
       <r>     4.7624     0.0000   140.0000 </r>
       <r>     4.9086     0.0000   140.0000 </r>
       <r>     5.0548     0.0000   140.0000 </r>
       <r>     5.2010     0.0000   140.0000 </r>
       <r>     5.3472     0.0000   140.0000 </r>
       <r>     5.4934     0.0000   140.0000 </r>
       <r>     5.6396     0.0000   140.0000 </r>
       <r>     5.7858     2.7802   140.3555 </r>
       <r>     5.9320     8.0579   141.0527 </r>
       <r>     6.0782    15.4812   142.5646 </r>
       <r>     6.2245    11.1713   144.7710 </r>
       <r>     6.3707    10.6401   146.2936 </r>
       <r>     6.5169    14.9623   147.6530 </r>
       <r>     6.6631    14.6913   149.9301 </r>
       <r>     6.8093    18.2489   152.7027 </r>
       <r>     6.9555    12.7927   155.5044 </r>
       <r>     7.1017    20.5427   158.7125 </r>
       <r>     7.2479    21.0520   161.4815 </r>
       <r>     7.3941    11.3076   163.5182 </r>
       <r>     7.5403     6.6372   164.7082 </r>
       <r>     7.6866     0.0000   165.0000 </r>
       <r>     7.8328     0.0000   165.0000 </r>
       <r>     7.9790     7.0356   165.2891 </r>
       <r>     8.1252     9.9289   166.5819 </r>
       <r>     8.2714     8.7116   168.2553 </r>
       <r>     8.4176     7.7256   169.6177 </r>
       <r>     8.5638     9.0941   170.8360 </r>
       <r>     8.7100     5.9483   171.8448 </r>
       <r>     8.8562     4.7532   172.6949 </r>
       <r>     9.0024     6.7475   173.5069 </r>
       <r>     9.1486     7.2616   174.6910 </r>
       <r>     9.2949    11.4578   176.4208 </r>
       <r>     9.4411    14.4831   177.8510 </r>
       <r>     9.5873    16.7524   179.8597 </r>
       <r>     9.7335    19.8829   182.4073 </r>
       <r>     9.8797    22.4415   185.4322 </r>
       <r>    10.0259    25.3296   188.4969 </r>
       <r>    10.1721     9.0629   191.7526 </r>
       <r>    10.3183     0.0000   192.0000 </r>
       <r>    10.4645     0.0000   192.0000 </r>
       <r>    10.6107     0.0000   192.0000 </r>
       <r>    10.7569     0.0000   192.0000 </r>
       <r>    10.9032     0.0000   192.0000 </r>
       <r>    11.0494     0.0000   192.0000 </r>
       <r>    11.1956     0.0000   192.0000 </r>
       <r>    11.3418     0.0000   192.0000 </r>
       <r>    11.4880     0.0000   192.0000 </r>
       <r>    11.6342     0.0000   192.0000 </r>
       <r>    11.7804     0.0000   192.0000 </r>
       <r>    11.9266     0.0000   192.0000 </r>
       <r>    12.0728     0.0000   192.0000 </r>
       <r>    12.2190     0.0000   192.0000 </r>
      </set>
     </set>
    </array>
   </total>
  </dos>
 </calculation>
 <structure name="finalpos" >
  <crystal>
   <varray name="basis" >
    <v>       7.87856000       0.00008300       0.00615600 </v>
    <v>      -0.00004900       7.87418100       0.00005200 </v>
    <v>       0.00626800      -0.00009600       7.87868900 </v>
   </varray>
   <i name="volume">    488.77156024 </i>
   <varray name="rec_basis" >
    <v>       0.12692683       0.00000079      -0.00010098 </v>
    <v>      -0.00000134       0.12699733       0.00000155 </v>
    <v>      -0.00009917      -0.00000084       0.12692475 </v>
   </varray>
  </crystal>
  <varray name="positions" >
   <v>       0.03427100       0.98407400       0.97896200 </v>
   <v>       0.01764800       0.99245000       0.49402000 </v>
   <v>       0.00157100       0.50225600       0.00203300 </v>
   <v>       0.99713500       0.49199300       0.54823300 </v>
   <v>       0.50244700       0.00045000       0.98297200 </v>
   <v>       0.50475600       0.99784700       0.50069900 </v>
   <v>       0.48427200       0.52041600       0.00554300 </v>
   <v>       0.47464700       0.51722400       0.53599800 </v>
   <v>       0.23323200       0.23297800       0.24493200 </v>
   <v>       0.25680000       0.24690400       0.75081000 </v>
   <v>       0.25063800       0.74382900       0.25603400 </v>
   <v>       0.24964200       0.75026300       0.75172000 </v>
   <v>       0.76604400       0.25967500       0.26952500 </v>
   <v>       0.75364000       0.25597200       0.77190500 </v>
   <v>       0.75307800       0.72530900       0.26476000 </v>
   <v>       0.74770000       0.75719300       0.75958100 </v>
   <v>       0.56100900       0.15127900       0.24843800 </v>
   <v>       0.27806900       0.19886600       0.00143300 </v>
   <v>       0.99314600       0.19124200       0.20946500 </v>
   <v>       0.25746600       0.98834500       0.29992300 </v>
   <v>       0.23540700       0.28193000       0.49335500 </v>
   <v>       0.00652200       0.29014600       0.78044200 </v>
   <v>       0.21461600       0.99777100       0.72017800 </v>
   <v>       0.28339400       0.78249200       0.00367700 </v>
   <v>       0.99181500       0.76855400       0.21416700 </v>
   <v>       0.24167600       0.48253500       0.20346400 </v>
   <v>       0.21408800       0.70325400       0.50362200 </v>
   <v>       0.99780200       0.72060100       0.78709400 </v>
   <v>       0.28874400       0.49846400       0.78116300 </v>
   <v>       0.73179000       0.32242400       0.00182300 </v>
   <v>       0.79860600       0.21543300       0.50088800 </v>
   <v>       0.50617500       0.21758500       0.72549600 </v>
   <v>       0.77672500       0.00952300       0.81016600 </v>
   <v>       0.70790500       0.73303100       0.01277100 </v>
   <v>       0.50109500       0.72006600       0.29229100 </v>
   <v>       0.78133200       0.49644300       0.30776000 </v>
   <v>       0.77471500       0.81728900       0.49179800 </v>
   <v>       0.49910300       0.78221700       0.71997700 </v>
   <v>       0.72616200       0.51337400       0.70625800 </v>
  </varray>
 </structure>
</modeling>
