<?xml version="1.0" encoding="ISO-8859-1"?>
<modeling>
 <generator>
  <i name="program" type="string">vasp </i>
  <i name="version" type="string">5.4.4.18Apr17-6-g9f103f2a35  </i>
  <i name="subversion" type="string">(build Nov 06 2019 13:43:20) complex            parallel </i>
  <i name="platform" type="string">LinuxIFC </i>
  <i name="date" type="string">2021 07 28 </i>
  <i name="time" type="string">13:08:27 </i>
 </generator>
 <incar>
  <i type="string" name="PREC">accurate</i>
  <i type="int" name="ISPIN">     2</i>
  <i type="int" name="NELM">  2000</i>
  <i type="int" name="NELMIN">     4</i>
  <i type="int" name="IBRION">     8</i>
  <i name="EDIFF">      0.00001000</i>
  <i name="ENCUT">    500.00000000</i>
  <i type="int" name="ISMEAR">    -5</i>
  <i name="SIGMA">      0.05000000</i>
  <v type="int" name="KPOINT_BSE">    -1     0     0     0</v>
  <i type="int" name="NELM">  2000</i>
 </incar>
 <structure name="primitive_cell" >
  <crystal>
   <varray name="basis" >
    <v>       7.85863038       0.00005142      -0.13760597 </v>
    <v>       0.00005109       7.69057214       0.00001816 </v>
    <v>      -0.13792247       0.00001857       7.73517286 </v>
   </varray>
   <i name="volume">    467.34749763 </i>
   <varray name="rec_basis" >
    <v>       0.12728838      -0.00000085       0.00226962 </v>
    <v>      -0.00000086       0.13002934      -0.00000033 </v>
    <v>       0.00226441      -0.00000032       0.12931997 </v>
   </varray>
  </crystal>
  <varray name="positions" >
   <v>       0.00107267       0.00022511       0.48807134 </v>
   <v>      -0.20813854       0.22965055       0.48645033 </v>
   <v>      -0.20814880      -0.22920397       0.48644584 </v>
   <v>       0.23152508       0.00022811      -0.28515484 </v>
   <v>       0.28488403       0.00022793       0.32303483 </v>
   <v>       0.00802628       0.20411626       0.21848927 </v>
   <v>       0.00801908      -0.20366350       0.21848606 </v>
   <v>      -0.17638915       0.00021998      -0.22919907 </v>
   <v>       0.23383604      -0.29275227      -0.49917166 </v>
   <v>       0.23384947       0.29321200      -0.49916400 </v>
   <v>      -0.27288472       0.00022350       0.20921972 </v>
   <v>       0.02361314      -0.29987049      -0.24086530 </v>
   <v>       0.02361721       0.30032190      -0.24086185 </v>
   <v>       0.24439644      -0.23249701       0.24775697 </v>
   <v>       0.24441175       0.23297222       0.24773699 </v>
   <v>      -0.25913450       0.23142516      -0.26123731 </v>
   <v>      -0.25914542      -0.23099228      -0.26123666 </v>
   <v>       0.43271782       0.00023375      -0.44711980 </v>
   <v>      -0.27718153       0.24513237       0.23139389 </v>
   <v>      -0.27718736      -0.24467985       0.23139427 </v>
   <v>      -0.07179180       0.00021210       0.04440368 </v>
   <v>       0.26021592      -0.24409054      -0.23177375 </v>
   <v>       0.26022595       0.24454970      -0.23177633 </v>
   <v>      -0.00675640      -0.49977664      -0.49929415 </v>
   <v>      -0.48582415       0.20918804      -0.30422639 </v>
   <v>      -0.48583635      -0.20873404      -0.30423684 </v>
   <v>      -0.20473674      -0.49977638       0.25941112 </v>
   <v>       0.20550139      -0.49977654       0.22857249 </v>
   <v>      -0.26798132      -0.49977377      -0.29852961 </v>
   <v>       0.27588370      -0.23752012       0.00514481 </v>
   <v>       0.27590087       0.23796290       0.00514023 </v>
   <v>      -0.49944310       0.29754397       0.26282485 </v>
   <v>      -0.49946035      -0.29710327       0.26280890 </v>
   <v>      -0.26260515       0.29449447      -0.01767487 </v>
   <v>      -0.26262316      -0.29405683      -0.01767661 </v>
   <v>       0.34291906      -0.49976859      -0.20574979 </v>
   <v>      -0.01502146      -0.49977476       0.00357361 </v>
   <v>       0.48095331      -0.49977305      -0.49487853 </v>
   <v>       0.36909408      -0.49968064       0.05781646 </v>
   <v>      -0.39896313      -0.49980518      -0.09977470 </v>
  </varray>
 </structure>
 <varray name="primitive_index" >
  <v type="int" >        1 </v>
  <v type="int" >       32 </v>
  <v type="int" >       38 </v>
  <v type="int" >       22 </v>
  <v type="int" >       19 </v>
  <v type="int" >       18 </v>
  <v type="int" >       24 </v>
  <v type="int" >       34 </v>
  <v type="int" >       26 </v>
  <v type="int" >       20 </v>
  <v type="int" >       31 </v>
  <v type="int" >       27 </v>
  <v type="int" >       21 </v>
  <v type="int" >       11 </v>
  <v type="int" >        9 </v>
  <v type="int" >       14 </v>
  <v type="int" >       16 </v>
  <v type="int" >        7 </v>
  <v type="int" >       13 </v>
  <v type="int" >       15 </v>
  <v type="int" >        5 </v>
  <v type="int" >       12 </v>
  <v type="int" >       10 </v>
  <v type="int" >        3 </v>
  <v type="int" >       33 </v>
  <v type="int" >       39 </v>
  <v type="int" >       37 </v>
  <v type="int" >       25 </v>
  <v type="int" >       40 </v>
  <v type="int" >       23 </v>
  <v type="int" >       17 </v>
  <v type="int" >       30 </v>
  <v type="int" >       36 </v>
  <v type="int" >       29 </v>
  <v type="int" >       35 </v>
  <v type="int" >       28 </v>
  <v type="int" >        2 </v>
  <v type="int" >        4 </v>
  <v type="int" >        8 </v>
  <v type="int" >        6 </v>
 </varray>
 <kpoints>
  <generation param="Monkhorst-Pack">
   <v type="int" name="divisions">       4        4        4 </v>
   <v name="usershift">      0.00000000       0.00000000       0.00000000 </v>
   <v name="genvec1">      0.25000000       0.00000000      -0.00000000 </v>
   <v name="genvec2">      0.00000000       0.25000000       0.00000000 </v>
   <v name="genvec3">      0.00000000       0.00000000       0.25000000 </v>
   <v name="shift">      0.50000000       0.50000000       0.50000000 </v>
  </generation>
  <varray name="kpointlist" >
   <v>       0.12500000       0.12500000       0.12500000 </v>
   <v>       0.37500000       0.12500000       0.12500000 </v>
   <v>      -0.37500000       0.12500000       0.12500000 </v>
   <v>      -0.12500000       0.12500000       0.12500000 </v>
   <v>       0.12500000       0.37500000       0.12500000 </v>
   <v>       0.37500000       0.37500000       0.12500000 </v>
   <v>      -0.37500000       0.37500000       0.12500000 </v>
   <v>      -0.12500000       0.37500000       0.12500000 </v>
   <v>       0.12500000      -0.37500000       0.12500000 </v>
   <v>       0.37500000      -0.37500000       0.12500000 </v>
   <v>      -0.37500000      -0.37500000       0.12500000 </v>
   <v>      -0.12500000      -0.37500000       0.12500000 </v>
   <v>       0.12500000      -0.12500000       0.12500000 </v>
   <v>       0.37500000      -0.12500000       0.12500000 </v>
   <v>      -0.37500000      -0.12500000       0.12500000 </v>
   <v>      -0.12500000      -0.12500000       0.12500000 </v>
   <v>       0.12500000       0.12500000       0.37500000 </v>
   <v>       0.37500000       0.12500000       0.37500000 </v>
   <v>      -0.37500000       0.12500000       0.37500000 </v>
   <v>      -0.12500000       0.12500000       0.37500000 </v>
   <v>       0.12500000       0.37500000       0.37500000 </v>
   <v>       0.37500000       0.37500000       0.37500000 </v>
   <v>      -0.37500000       0.37500000       0.37500000 </v>
   <v>      -0.12500000       0.37500000       0.37500000 </v>
   <v>       0.12500000      -0.37500000       0.37500000 </v>
   <v>       0.37500000      -0.37500000       0.37500000 </v>
   <v>      -0.37500000      -0.37500000       0.37500000 </v>
   <v>      -0.12500000      -0.37500000       0.37500000 </v>
   <v>       0.12500000      -0.12500000       0.37500000 </v>
   <v>       0.37500000      -0.12500000       0.37500000 </v>
   <v>      -0.37500000      -0.12500000       0.37500000 </v>
   <v>      -0.12500000      -0.12500000       0.37500000 </v>
  </varray>
  <varray name="weights" >
   <v>       0.03125000 </v>
   <v>       0.03125000 </v>
   <v>       0.03125000 </v>
   <v>       0.03125000 </v>
   <v>       0.03125000 </v>
   <v>       0.03125000 </v>
   <v>       0.03125000 </v>
   <v>       0.03125000 </v>
   <v>       0.03125000 </v>
   <v>       0.03125000 </v>
   <v>       0.03125000 </v>
   <v>       0.03125000 </v>
   <v>       0.03125000 </v>
   <v>       0.03125000 </v>
   <v>       0.03125000 </v>
   <v>       0.03125000 </v>
   <v>       0.03125000 </v>
   <v>       0.03125000 </v>
   <v>       0.03125000 </v>
   <v>       0.03125000 </v>
   <v>       0.03125000 </v>
   <v>       0.03125000 </v>
   <v>       0.03125000 </v>
   <v>       0.03125000 </v>
   <v>       0.03125000 </v>
   <v>       0.03125000 </v>
   <v>       0.03125000 </v>
   <v>       0.03125000 </v>
   <v>       0.03125000 </v>
   <v>       0.03125000 </v>
   <v>       0.03125000 </v>
   <v>       0.03125000 </v>
  </varray>
  <varray name="tetrahedronlist"  type="int" >
   <v type="int" >        2        1        2        6       17 </v>
   <v type="int" >        2        1        5        6       17 </v>
   <v type="int" >        2        5        6       17       21 </v>
   <v type="int" >        2        2        6       17       18 </v>
   <v type="int" >        2        6       17       18       22 </v>
   <v type="int" >        2        6       17       21       22 </v>
   <v type="int" >        2        2        3        7       18 </v>
   <v type="int" >        2        2        6        7       18 </v>
   <v type="int" >        2        6        7       18       22 </v>
   <v type="int" >        2        3        7       18       19 </v>
   <v type="int" >        2        7       18       19       23 </v>
   <v type="int" >        2        7       18       22       23 </v>
   <v type="int" >        2        3        4        8       19 </v>
   <v type="int" >        2        3        7        8       19 </v>
   <v type="int" >        2        7        8       19       23 </v>
   <v type="int" >        2        4        8       19       20 </v>
   <v type="int" >        2        8       19       20       24 </v>
   <v type="int" >        2        8       19       23       24 </v>
   <v type="int" >        2        1        4        5       20 </v>
   <v type="int" >        2        4        5        8       20 </v>
   <v type="int" >        2        5        8       20       24 </v>
   <v type="int" >        2        1        5       17       20 </v>
   <v type="int" >        2        5       17       20       21 </v>
   <v type="int" >        2        5       20       21       24 </v>
   <v type="int" >        2        5        6       10       21 </v>
   <v type="int" >        2        5        9       10       21 </v>
   <v type="int" >        2        9       10       21       25 </v>
   <v type="int" >        2        6       10       21       22 </v>
   <v type="int" >        2       10       21       22       26 </v>
   <v type="int" >        2       10       21       25       26 </v>
   <v type="int" >        2        6        7       11       22 </v>
   <v type="int" >        2        6       10       11       22 </v>
   <v type="int" >        2       10       11       22       26 </v>
   <v type="int" >        2        7       11       22       23 </v>
   <v type="int" >        2       11       22       23       27 </v>
   <v type="int" >        2       11       22       26       27 </v>
   <v type="int" >        2        7        8       12       23 </v>
   <v type="int" >        2        7       11       12       23 </v>
   <v type="int" >        2       11       12       23       27 </v>
   <v type="int" >        2        8       12       23       24 </v>
   <v type="int" >        2       12       23       24       28 </v>
   <v type="int" >        2       12       23       27       28 </v>
   <v type="int" >        2        5        8        9       24 </v>
   <v type="int" >        2        8        9       12       24 </v>
   <v type="int" >        2        9       12       24       28 </v>
   <v type="int" >        2        5        9       21       24 </v>
   <v type="int" >        2        9       21       24       25 </v>
   <v type="int" >        2        9       24       25       28 </v>
   <v type="int" >        2        9       10       14       25 </v>
   <v type="int" >        2        9       13       14       25 </v>
   <v type="int" >        2       13       14       25       29 </v>
   <v type="int" >        2       10       14       25       26 </v>
   <v type="int" >        2       14       25       26       30 </v>
   <v type="int" >        2       14       25       29       30 </v>
   <v type="int" >        2       10       11       15       26 </v>
   <v type="int" >        2       10       14       15       26 </v>
   <v type="int" >        2       14       15       26       30 </v>
   <v type="int" >        2       11       15       26       27 </v>
   <v type="int" >        2       15       26       27       31 </v>
   <v type="int" >        2       15       26       30       31 </v>
   <v type="int" >        2       11       12       16       27 </v>
   <v type="int" >        2       11       15       16       27 </v>
   <v type="int" >        2       15       16       27       31 </v>
   <v type="int" >        2       12       16       27       28 </v>
   <v type="int" >        2       16       27       28       32 </v>
   <v type="int" >        2       16       27       31       32 </v>
   <v type="int" >        2        9       12       13       28 </v>
   <v type="int" >        2       12       13       16       28 </v>
   <v type="int" >        2       13       16       28       32 </v>
   <v type="int" >        2        9       13       25       28 </v>
   <v type="int" >        2       13       25       28       29 </v>
   <v type="int" >        2       13       28       29       32 </v>
   <v type="int" >        2        2       13       14       29 </v>
   <v type="int" >        2        1        2       13       29 </v>
   <v type="int" >        2        1        2       17       29 </v>
   <v type="int" >        2        2       14       29       30 </v>
   <v type="int" >        2        2       18       29       30 </v>
   <v type="int" >        2        2       17       18       29 </v>
   <v type="int" >        2        3       14       15       30 </v>
   <v type="int" >        2        2        3       14       30 </v>
   <v type="int" >        2        2        3       18       30 </v>
   <v type="int" >        2        3       15       30       31 </v>
   <v type="int" >        2        3       19       30       31 </v>
   <v type="int" >        2        3       18       19       30 </v>
   <v type="int" >        2        4       15       16       31 </v>
   <v type="int" >        2        3        4       15       31 </v>
   <v type="int" >        2        3        4       19       31 </v>
   <v type="int" >        2        4       16       31       32 </v>
   <v type="int" >        2        4       20       31       32 </v>
   <v type="int" >        2        4       19       20       31 </v>
   <v type="int" >        2        1       13       16       32 </v>
   <v type="int" >        2        1        4       16       32 </v>
   <v type="int" >        2        1        4       20       32 </v>
   <v type="int" >        2        1       13       29       32 </v>
   <v type="int" >        2        1       17       29       32 </v>
   <v type="int" >        2        1       17       20       32 </v>
   <v type="int" >        2       17       18       22       32 </v>
   <v type="int" >        2       17       21       22       32 </v>
   <v type="int" >        2       21       22       28       32 </v>
   <v type="int" >        2       18       22       31       32 </v>
   <v type="int" >        2       22       27       31       32 </v>
   <v type="int" >        2       22       27       28       32 </v>
   <v type="int" >        2       18       19       23       31 </v>
   <v type="int" >        2       18       22       23       31 </v>
   <v type="int" >        2       22       23       27       31 </v>
   <v type="int" >        2       19       23       30       31 </v>
   <v type="int" >        2       23       26       30       31 </v>
   <v type="int" >        2       23       26       27       31 </v>
   <v type="int" >        2       19       20       24       30 </v>
   <v type="int" >        2       19       23       24       30 </v>
   <v type="int" >        2       23       24       26       30 </v>
   <v type="int" >        2       20       24       29       30 </v>
   <v type="int" >        2       24       25       29       30 </v>
   <v type="int" >        2       24       25       26       30 </v>
   <v type="int" >        2       17       20       21       29 </v>
   <v type="int" >        2       20       21       24       29 </v>
   <v type="int" >        2       21       24       25       29 </v>
   <v type="int" >        2       17       21       29       32 </v>
   <v type="int" >        2       21       28       29       32 </v>
   <v type="int" >        2       21       25       28       29 </v>
   <v type="int" >        2       21       22       26       28 </v>
   <v type="int" >        2       21       25       26       28 </v>
   <v type="int" >        2       24       25       26       28 </v>
   <v type="int" >        2       22       26       27       28 </v>
   <v type="int" >        2       23       26       27       28 </v>
   <v type="int" >        2       23       24       26       28 </v>
   <v type="int" >        2       22       23       27       27 </v>
   <v type="int" >        2       22       26       27       27 </v>
   <v type="int" >        2       23       26       27       27 </v>
   <v type="int" >        2       21       24       25       25 </v>
   <v type="int" >        2       24       25       25       28 </v>
   <v type="int" >        2       21       25       25       28 </v>
   <v type="int" >        2       18       20       29       30 </v>
   <v type="int" >        2       17       18       20       29 </v>
   <v type="int" >        2       17       18       20       32 </v>
   <v type="int" >        2       18       19       20       30 </v>
   <v type="int" >        2       18       19       20       31 </v>
   <v type="int" >        2       18       20       31       32 </v>
   <v type="int" >        2       19       19       30       31 </v>
   <v type="int" >        2       18       19       19       30 </v>
   <v type="int" >        2       18       19       19       31 </v>
   <v type="int" >        2       17       17       29       32 </v>
   <v type="int" >        2       17       17       20       32 </v>
   <v type="int" >        2       17       17       20       29 </v>
   <v type="int" >        2        1       11       15       16 </v>
   <v type="int" >        2        1       11       12       16 </v>
   <v type="int" >        2        1        5       11       12 </v>
   <v type="int" >        2        1        2       11       15 </v>
   <v type="int" >        2        1        2        6       11 </v>
   <v type="int" >        2        1        5        6       11 </v>
   <v type="int" >        2        2       10       14       15 </v>
   <v type="int" >        2        2       10       11       15 </v>
   <v type="int" >        2        2        6       10       11 </v>
   <v type="int" >        2        2        3       10       14 </v>
   <v type="int" >        2        2        3        7       10 </v>
   <v type="int" >        2        2        6        7       10 </v>
   <v type="int" >        2        3        9       13       14 </v>
   <v type="int" >        2        3        9       10       14 </v>
   <v type="int" >        2        3        7        9       10 </v>
   <v type="int" >        2        3        4        9       13 </v>
   <v type="int" >        2        3        4        8        9 </v>
   <v type="int" >        2        3        7        8        9 </v>
   <v type="int" >        2        4       12       13       16 </v>
   <v type="int" >        2        4        9       12       13 </v>
   <v type="int" >        2        4        8        9       12 </v>
   <v type="int" >        2        1        4       12       16 </v>
   <v type="int" >        2        1        4        5       12 </v>
   <v type="int" >        2        4        5        8       12 </v>
   <v type="int" >        2        5        7       11       12 </v>
   <v type="int" >        2        5        7        8       12 </v>
   <v type="int" >        2        5        7        8        9 </v>
   <v type="int" >        2        5        6        7       11 </v>
   <v type="int" >        2        5        6        7       10 </v>
   <v type="int" >        2        5        7        9       10 </v>
   <v type="int" >        2        6        6       10       11 </v>
   <v type="int" >        2        6        6        7       11 </v>
   <v type="int" >        2        6        6        7       10 </v>
   <v type="int" >        2        8        8        9       12 </v>
   <v type="int" >        2        5        8        8        9 </v>
   <v type="int" >        2        5        8        8       12 </v>
   <v type="int" >        2        3        4       13       15 </v>
   <v type="int" >        2        4       13       15       16 </v>
   <v type="int" >        2        1       13       15       16 </v>
   <v type="int" >        2        3       13       14       15 </v>
   <v type="int" >        2        2       13       14       15 </v>
   <v type="int" >        2        1        2       13       15 </v>
   <v type="int" >        2        2        3       14       14 </v>
   <v type="int" >        2        3       14       14       15 </v>
   <v type="int" >        2        2       14       14       15 </v>
   <v type="int" >        2        1        4       16       16 </v>
   <v type="int" >        2        1       13       16       16 </v>
   <v type="int" >        2        4       13       16       16 </v>
  </varray>
  <i name="volumeweight">      0.00260417 </i>
 </kpoints>
 <parameters>
  <separator name="general" >
   <i type="string" name="SYSTEM">unknown system</i>
   <i type="logical" name="LCOMPAT"> F  </i>
  </separator>
  <separator name="electronic" >
   <i type="string" name="PREC">accura</i>
   <i name="ENMAX">    500.00000000</i>
   <i name="ENAUG">    628.94500000</i>
   <i name="EDIFF">      0.00001000</i>
   <i type="int" name="IALGO">    38</i>
   <i type="int" name="IWAVPR">    11</i>
   <i type="int" name="NBANDS">   192</i>
   <i name="NELECT">    280.00000000</i>
   <i type="int" name="TURBO">     0</i>
   <i type="int" name="IRESTART">     0</i>
   <i type="int" name="NREBOOT">     0</i>
   <i type="int" name="NMIN">     0</i>
   <i name="EREF">      0.00000000</i>
   <separator name="electronic smearing" >
    <i type="int" name="ISMEAR">    -5</i>
    <i name="SIGMA">      0.05000000</i>
    <i name="KSPACING">      0.50000000</i>
    <i type="logical" name="KGAMMA"> T  </i>
   </separator>
   <separator name="electronic projectors" >
    <i type="logical" name="LREAL"> F  </i>
    <v name="ROPT">      0.00000000      0.00000000      0.00000000      0.00000000</v>
    <i type="int" name="LMAXPAW">  -100</i>
    <i type="int" name="LMAXMIX">     2</i>
    <i type="logical" name="NLSPLINE"> F  </i>
   </separator>
   <separator name="electronic startup" >
    <i type="int" name="ISTART">     0</i>
    <i type="int" name="ICHARG">     2</i>
    <i type="int" name="INIWAV">     1</i>
   </separator>
   <separator name="electronic spin" >
    <i type="int" name="ISPIN">     2</i>
    <i type="logical" name="LNONCOLLINEAR"> F  </i>
    <v name="MAGMOM">      1.00000000      1.00000000      1.00000000      1.00000000      1.00000000      1.00000000      1.00000000      1.00000000      1.00000000      1.00000000      1.00000000      1.00000000      1.00000000      1.00000000      1.00000000      1.00000000      1.00000000      1.00000000      1.00000000      1.00000000
      1.00000000      1.00000000      1.00000000      1.00000000      1.00000000      1.00000000      1.00000000      1.00000000      1.00000000      1.00000000      1.00000000      1.00000000      1.00000000      1.00000000      1.00000000      1.00000000      1.00000000      1.00000000      1.00000000      1.00000000
</v>
    <i name="NUPDOWN">     -1.00000000</i>
    <i type="logical" name="LSORBIT"> F  </i>
    <v name="SAXIS">      0.00000000      0.00000000      1.00000000</v>
    <i type="logical" name="LSPIRAL"> F  </i>
    <v name="QSPIRAL">      0.00000000      0.00000000      0.00000000</v>
    <i type="logical" name="LZEROZ"> F  </i>
   </separator>
   <separator name="electronic exchange-correlation" >
    <i type="logical" name="LASPH"> F  </i>
    <i type="logical" name="LMETAGGA"> F  </i>
   </separator>
   <separator name="electronic convergence" >
    <i type="int" name="NELM">  2000</i>
    <i type="int" name="NELMDL">     0</i>
    <i type="int" name="NELMIN">     4</i>
    <i name="ENINI">    500.00000000</i>
    <separator name="electronic convergence detail" >
     <i type="logical" name="LDIAG"> T  </i>
     <i type="logical" name="LSUBROT"> F  </i>
     <i name="WEIMIN">      0.00100000</i>
     <i name="EBREAK">      0.00000001</i>
     <i name="DEPER">      0.30000000</i>
     <i type="int" name="NRMM">     4</i>
     <i name="TIME">      0.40000000</i>
    </separator>
   </separator>
   <separator name="electronic mixer" >
    <i name="AMIX">      0.40000000</i>
    <i name="BMIX">      1.00000000</i>
    <i name="AMIN">      0.10000000</i>
    <i name="AMIX_MAG">      1.60000000</i>
    <i name="BMIX_MAG">      1.00000000</i>
    <separator name="electronic mixer details" >
     <i type="int" name="IMIX">     4</i>
     <i type="logical" name="MIXFIRST"> F  </i>
     <i type="int" name="MAXMIX">   -45</i>
     <i name="WC">    100.00000000</i>
     <i type="int" name="INIMIX">     1</i>
     <i type="int" name="MIXPRE">     1</i>
     <i type="int" name="MREMOVE">     5</i>
    </separator>
   </separator>
   <separator name="electronic dipolcorrection" >
    <i type="logical" name="LDIPOL"> F  </i>
    <i type="logical" name="LMONO"> F  </i>
    <i type="int" name="IDIPOL">     0</i>
    <i name="EPSILON">      1.00000000</i>
    <v name="DIPOL">   -100.00000000   -100.00000000   -100.00000000</v>
    <i name="EFIELD">      0.00000000</i>
   </separator>
  </separator>
  <separator name="grids" >
   <i type="int" name="NGX">    60</i>
   <i type="int" name="NGY">    56</i>
   <i type="int" name="NGZ">    56</i>
   <i type="int" name="NGXF">   120</i>
   <i type="int" name="NGYF">   112</i>
   <i type="int" name="NGZF">   112</i>
   <i type="logical" name="ADDGRID"> F  </i>
  </separator>
  <separator name="ionic" >
   <i type="int" name="NSW">     1</i>
   <i type="int" name="IBRION">     8</i>
   <i type="int" name="MDALGO">     0</i>
   <i type="int" name="ISIF">     2</i>
   <i name="PSTRESS">      0.00000000</i>
   <i name="EDIFFG">      0.00010000</i>
   <i type="int" name="NFREE">     0</i>
   <i name="POTIM">      0.50000000</i>
   <i name="SMASS">     -3.00000000</i>
   <i name="SCALEE">      1.00000000</i>
  </separator>
  <separator name="ionic md" >
   <i name="TEBEG">      0.00010000</i>
   <i name="TEEND">      0.00010000</i>
   <i type="int" name="NBLOCK">     1</i>
   <i type="int" name="KBLOCK">     1</i>
   <i type="int" name="NPACO">   256</i>
   <i name="APACO">     16.00000000</i>
  </separator>
  <separator name="symmetry" >
   <i type="int" name="ISYM">     2</i>
   <i name="SYMPREC">      0.00001000</i>
  </separator>
  <separator name="dos" >
   <i type="int" name="LORBIT">     0</i>
   <v name="RWIGS">     -1.00000000     -1.00000000     -1.00000000     -1.00000000</v>
   <i type="int" name="NEDOS">   301</i>
   <i name="EMIN">     10.00000000</i>
   <i name="EMAX">    -10.00000000</i>
   <i name="EFERMI">      0.00000000</i>
  </separator>
  <separator name="writing" >
   <i type="int" name="NWRITE">     2</i>
   <i type="logical" name="LWAVE"> T  </i>
   <i type="logical" name="LDOWNSAMPLE"> F  </i>
   <i type="logical" name="LCHARG"> T  </i>
   <i type="logical" name="LPARD"> F  </i>
   <i type="logical" name="LVTOT"> F  </i>
   <i type="logical" name="LVHAR"> F  </i>
   <i type="logical" name="LELF"> F  </i>
   <i type="logical" name="LOPTICS"> F  </i>
   <v name="STM">      0.00000000      0.00000000      0.00000000      0.00000000      0.00000000      0.00000000      0.00000000</v>
  </separator>
  <separator name="performance" >
   <i type="int" name="NPAR">    64</i>
   <i type="int" name="NSIM">     4</i>
   <i type="int" name="NBLK">    -1</i>
   <i type="logical" name="LPLANE"> T  </i>
   <i type="logical" name="LSCALAPACK"> T  </i>
   <i type="logical" name="LSCAAWARE"> F  </i>
   <i type="logical" name="LSCALU"> F  </i>
   <i type="logical" name="LASYNC"> F  </i>
   <i type="logical" name="LORBITALREAL"> F  </i>
  </separator>
  <separator name="miscellaneous" >
   <i type="int" name="IDIOT">     3</i>
   <i type="int" name="ISPECIAL">     0</i>
   <i type="logical" name="LMUSIC"> F  </i>
   <v name="POMASS">    138.90000000      7.01000000     47.88000000     16.00000000</v>
   <v name="DARWINR">      0.00000000      0.00000000      0.00000000      0.00000000</v>
   <v name="DARWINV">      1.00000000      1.00000000      1.00000000      1.00000000</v>
   <i type="logical" name="LCORR"> T  </i>
  </separator>
  <i type="logical" name="GGA_COMPAT"> T  </i>
  <i type="logical" name="LBERRY"> F  </i>
  <i type="int" name="ICORELEVEL">     0</i>
  <i type="logical" name="LDAU"> F  </i>
  <i type="int" name="I_CONSTRAINED_M">     0</i>
  <separator name="electronic exchange-correlation" >
   <i type="string" name="GGA">--</i>
   <i type="int" name="VOSKOWN">     0</i>
   <i type="logical" name="LHFCALC"> F  </i>
   <i type="string" name="PRECFOCK"></i>
   <i type="logical" name="LSYMGRAD"> F  </i>
   <i type="logical" name="LHFONE"> F  </i>
   <i type="logical" name="LRHFCALC"> F  </i>
   <i type="logical" name="LTHOMAS"> F  </i>
   <i type="logical" name="LMODELHF"> F  </i>
   <i name="ENCUT4O">     -1.00000000</i>
   <i type="int" name="EXXOEP">     0</i>
   <i type="int" name="FOURORBIT">     0</i>
   <i name="AEXX">      0.00000000</i>
   <i name="HFALPHA">      0.00000000</i>
   <i name="MCALPHA">      0.00000000</i>
   <i name="ALDAX">      1.00000000</i>
   <i name="AGGAX">      1.00000000</i>
   <i name="ALDAC">      1.00000000</i>
   <i name="AGGAC">      1.00000000</i>
   <i type="int" name="NKREDX">     1</i>
   <i type="int" name="NKREDY">     1</i>
   <i type="int" name="NKREDZ">     1</i>
   <i type="logical" name="SHIFTRED"> F  </i>
   <i type="logical" name="ODDONLY"> F  </i>
   <i type="logical" name="EVENONLY"> F  </i>
   <i type="int" name="LMAXFOCK">     0</i>
   <i type="int" name="NMAXFOCKAE">     0</i>
   <i type="logical" name="LFOCKAEDFT"> F  </i>
   <i name="HFSCREEN">      0.00000000</i>
   <i name="HFSCREENC">      0.00000000</i>
   <i type="int" name="NBANDSGWLOW">     0</i>
  </separator>
  <separator name="vdW DFT" >
   <i type="logical" name="LUSE_VDW"> F  </i>
   <i name="Zab_VDW">     -0.84910000</i>
   <i name="PARAM1">      0.12340000</i>
   <i name="PARAM2">      1.00000000</i>
   <i name="PARAM3">      0.00000000</i>
  </separator>
  <separator name="model GW" >
   <i type="int" name="MODEL_GW">     0</i>
   <i name="MODEL_EPS0">      7.01021246</i>
   <i name="MODEL_ALPHA">      1.00000000</i>
  </separator>
  <separator name="linear response parameters" >
   <i type="logical" name="LEPSILON"> F  </i>
   <i type="logical" name="LRPA"> F  </i>
   <i type="logical" name="LNABLA"> F  </i>
   <i type="logical" name="LVEL"> F  </i>
   <i type="int" name="KINTER">     0</i>
   <i name="CSHIFT">      0.10000000</i>
   <i name="OMEGAMAX">     -1.00000000</i>
   <i name="DEG_THRESHOLD">      0.00200000</i>
   <i name="RTIME">     -0.10000000</i>
   <i name="WPLASMAI">      0.00000000</i>
   <v name="DFIELD">      0.00000000      0.00000000      0.00000000</v>
   <v name="WPLASMA">      0.00000000      0.00000000      0.00000000      0.00000000      0.00000000      0.00000000      0.00000000      0.00000000      0.00000000</v>
  </separator>
  <separator name="orbital magnetization" >
   <i type="logical" name="NUCIND"> F  </i>
   <v name="MAGPOS">      0.00000000      0.00000000      0.00000000</v>
   <i type="logical" name="LNICSALL"> T  </i>
   <i type="logical" name="ORBITALMAG"> F  </i>
   <i type="logical" name="LMAGBLOCH"> F  </i>
   <i type="logical" name="LCHIMAG"> F  </i>
   <i type="logical" name="LGAUGE"> T  </i>
   <i type="int" name="MAGATOM">     0</i>
   <v name="MAGDIPOL">      0.00000000      0.00000000      0.00000000</v>
   <v name="AVECCONST">      0.00000000      0.00000000      0.00000000</v>
  </separator>
  <separator name="response functions" >
   <i type="logical" name="LADDER"> F  </i>
   <i type="logical" name="LRPAFORCE"> F  </i>
   <i type="logical" name="LFXC"> F  </i>
   <i type="logical" name="LHARTREE"> T  </i>
   <i type="int" name="IBSE">     0</i>
   <v type="int" name="KPOINT">    -1     0     0     0</v>
   <i type="logical" name="LTCTE"> F  </i>
   <i type="logical" name="LTETE"> F  </i>
   <i type="logical" name="LTRIPLET"> F  </i>
   <i type="logical" name="LFXCEPS"> F  </i>
   <i type="logical" name="LFXHEG"> F  </i>
   <i type="int" name="NATURALO">     2</i>
   <i type="logical" name="L2ORDER"> F  </i>
   <i type="logical" name="LMP2LT"> F  </i>
   <i type="logical" name="LUSEW"> F  </i>
   <i name="ENCUTGW">     -2.00000000</i>
   <i name="ENCUTGWSOFT">     -2.00000000</i>
   <i name="ENCUTLF">     -1.00000000</i>
   <i type="int" name="LMAXMP2">    -1</i>
   <i name="SCISSOR">      0.00000000</i>
   <i type="int" name="NOMEGA">     0</i>
   <i type="int" name="NOMEGAR">     0</i>
   <i type="int" name="NBANDSGW">    -1</i>
   <i type="int" name="NBANDSO">    -1</i>
   <i type="int" name="NBANDSV">    -1</i>
   <i type="int" name="NELM">  2000</i>
   <i type="int" name="NELMHF">     1</i>
   <i type="int" name="DIM">     3</i>
   <i type="int" name="ANTIRES">     0</i>
   <i name="OMEGAMAX">    -30.00000000</i>
   <i name="OMEGAMIN">    -30.00000000</i>
   <i name="OMEGATL">   -200.00000000</i>
   <i type="int" name="OMEGAGRID">   140</i>
   <i name="CSHIFT">     -0.10000000</i>
   <i type="logical" name="SELFENERGY"> F  </i>
   <i type="logical" name="LSPECTRAL"> F  </i>
   <i type="logical" name="LSPECTRALGW"> F  </i>
   <i type="logical" name="LSINGLES"> F  </i>
   <i type="logical" name="LFERMIGW"> F  </i>
   <i type="logical" name="ODDONLYGW"> F  </i>
   <i type="logical" name="EVENONLYGW"> F  </i>
   <i type="int" name="NKREDLFX">     1</i>
   <i type="int" name="NKREDLFY">     1</i>
   <i type="int" name="NKREDLFZ">     1</i>
   <i type="int" name="MAXMEM">  2800</i>
   <i type="int" name="TELESCOPE">     0</i>
   <i type="int" name="TAUPAR">     1</i>
   <i type="int" name="OMEGAPAR">    -1</i>
   <i name="LAMBDA">      1.00000000</i>
  </separator>
  <separator name="External order field" >
   <i name="OFIELD_KAPPA">      0.00000000</i>
   <v name="OFIELD_K">      0.00000000      0.00000000      0.00000000</v>
   <i name="OFIELD_Q6_NEAR">      0.00000000</i>
   <i name="OFIELD_Q6_FAR">      0.00000000</i>
   <i name="OFIELD_A">      0.00000000</i>
  </separator>
 </parameters>
 <atominfo>
  <atoms>      40 </atoms>
  <types>       4 </types>
  <array name="atoms" >
   <dimension dim="1">ion</dimension>
   <field type="string">element</field>
   <field type="int">atomtype</field>
   <set>
    <rc><c>La</c><c>   1</c></rc>
    <rc><c>La</c><c>   1</c></rc>
    <rc><c>La</c><c>   1</c></rc>
    <rc><c>La</c><c>   1</c></rc>
    <rc><c>Li</c><c>   2</c></rc>
    <rc><c>Li</c><c>   2</c></rc>
    <rc><c>Li</c><c>   2</c></rc>
    <rc><c>Li</c><c>   2</c></rc>
    <rc><c>Ti</c><c>   3</c></rc>
    <rc><c>Ti</c><c>   3</c></rc>
    <rc><c>Ti</c><c>   3</c></rc>
    <rc><c>Ti</c><c>   3</c></rc>
    <rc><c>Ti</c><c>   3</c></rc>
    <rc><c>Ti</c><c>   3</c></rc>
    <rc><c>Ti</c><c>   3</c></rc>
    <rc><c>Ti</c><c>   3</c></rc>
    <rc><c>O </c><c>   4</c></rc>
    <rc><c>O </c><c>   4</c></rc>
    <rc><c>O </c><c>   4</c></rc>
    <rc><c>O </c><c>   4</c></rc>
    <rc><c>O </c><c>   4</c></rc>
    <rc><c>O </c><c>   4</c></rc>
    <rc><c>O </c><c>   4</c></rc>
    <rc><c>O </c><c>   4</c></rc>
    <rc><c>O </c><c>   4</c></rc>
    <rc><c>O </c><c>   4</c></rc>
    <rc><c>O </c><c>   4</c></rc>
    <rc><c>O </c><c>   4</c></rc>
    <rc><c>O </c><c>   4</c></rc>
    <rc><c>O </c><c>   4</c></rc>
    <rc><c>O </c><c>   4</c></rc>
    <rc><c>O </c><c>   4</c></rc>
    <rc><c>O </c><c>   4</c></rc>
    <rc><c>O </c><c>   4</c></rc>
    <rc><c>O </c><c>   4</c></rc>
    <rc><c>O </c><c>   4</c></rc>
    <rc><c>O </c><c>   4</c></rc>
    <rc><c>O </c><c>   4</c></rc>
    <rc><c>O </c><c>   4</c></rc>
    <rc><c>O </c><c>   4</c></rc>
   </set>
  </array>
  <array name="atomtypes" >
   <dimension dim="1">type</dimension>
   <field type="int">atomspertype</field>
   <field type="string">element</field>
   <field>mass</field>
   <field>valence</field>
   <field type="string">pseudopotential</field>
   <set>
    <rc><c>   4</c><c>La</c><c>    138.90000000</c><c>     11.00000000</c><c>  PAW_PBE La 06Sep2000                  </c></rc>
    <rc><c>   4</c><c>Li</c><c>      7.01000000</c><c>      3.00000000</c><c>  PAW_PBE Li_sv 10Sep2004               </c></rc>
    <rc><c>   8</c><c>Ti</c><c>     47.88000000</c><c>     10.00000000</c><c>  PAW_PBE Ti_pv 07Sep2000               </c></rc>
    <rc><c>  24</c><c>O </c><c>     16.00000000</c><c>      6.00000000</c><c>  PAW_PBE O_s 07Sep2000                 </c></rc>
   </set>
  </array>
 </atominfo>
 <structure name="initialpos" >
  <crystal>
   <varray name="basis" >
    <v>       7.85863038       0.00005142      -0.13760597 </v>
    <v>       0.00005109       7.69057214       0.00001816 </v>
    <v>      -0.13792247       0.00001857       7.73517286 </v>
   </varray>
   <i name="volume">    467.34749763 </i>
   <varray name="rec_basis" >
    <v>       0.12728838      -0.00000085       0.00226962 </v>
    <v>      -0.00000086       0.13002934      -0.00000033 </v>
    <v>       0.00226441      -0.00000032       0.12931997 </v>
   </varray>
  </crystal>
  <varray name="positions" >
   <v>       0.00107267       0.00022511       0.48807134 </v>
   <v>       0.98497854       0.50022524       0.00357361 </v>
   <v>       0.99324360       0.50022336       0.50070585 </v>
   <v>       0.48095331       0.50022695       0.50512147 </v>
   <v>       0.92820820       0.00021210       0.04440368 </v>
   <v>       0.60103687       0.50019482       0.90022530 </v>
   <v>       0.43271782       0.00023375       0.55288020 </v>
   <v>       0.36909408       0.50031936       0.05781646 </v>
   <v>       0.24441175       0.23297222       0.24773699 </v>
   <v>       0.26022595       0.24454970       0.76822367 </v>
   <v>       0.24439644       0.76750299       0.24775697 </v>
   <v>       0.26021592       0.75590946       0.76822625 </v>
   <v>       0.72281847       0.24513237       0.23139389 </v>
   <v>       0.74086550       0.23142516       0.73876269 </v>
   <v>       0.72281264       0.75532015       0.23139427 </v>
   <v>       0.74085458       0.76900772       0.73876334 </v>
   <v>       0.27590087       0.23796290       0.00514023 </v>
   <v>       0.00802628       0.20411626       0.21848927 </v>
   <v>       0.28488403       0.00022793       0.32303483 </v>
   <v>       0.23384947       0.29321200       0.50083600 </v>
   <v>       0.02361721       0.30032190       0.75913815 </v>
   <v>       0.23152508       0.00022811       0.71484516 </v>
   <v>       0.27588370       0.76247988       0.00514481 </v>
   <v>       0.00801908       0.79633650       0.21848606 </v>
   <v>       0.20550139       0.50022346       0.22857249 </v>
   <v>       0.23383604       0.70724773       0.50082834 </v>
   <v>       0.02361314       0.70012951       0.75913470 </v>
   <v>       0.34291906       0.50023141       0.79425021 </v>
   <v>       0.73739485       0.29449447       0.98232513 </v>
   <v>       0.50055690       0.29754397       0.26282485 </v>
   <v>       0.72711528       0.00022350       0.20921972 </v>
   <v>       0.79186146       0.22965055       0.48645033 </v>
   <v>       0.51417585       0.20918804       0.69577361 </v>
   <v>       0.82361085       0.00021998       0.77080093 </v>
   <v>       0.73737684       0.70594317       0.98232339 </v>
   <v>       0.50053965       0.70289673       0.26280890 </v>
   <v>       0.79526326       0.50022362       0.25941112 </v>
   <v>       0.79185120       0.77079603       0.48644584 </v>
   <v>       0.51416365       0.79126596       0.69576316 </v>
   <v>       0.73201868       0.50022623       0.70147039 </v>
  </varray>
 </structure>
 <calculation>
  <scstep>
   <time name="dav">   25.56   25.58</time>
   <time name="total">   25.72   25.75</time>
   <energy>
    <i name="alphaZ">   1092.96793109 </i>
    <i name="ewald"> -17260.89868890 </i>
    <i name="hartreedc">  -5597.09779549 </i>
    <i name="XCdc">   1132.08559750 </i>
    <i name="pawpsdc">  17700.23480859 </i>
    <i name="pawaedc"> -17854.15814791 </i>
    <i name="eentropy">      0.00000000 </i>
    <i name="bandstr">    458.19334263 </i>
    <i name="atom">  22992.69823266 </i>
    <i name="e_fr_energy">   2664.02528016 </i>
    <i name="e_wo_entrp">   2664.02528016 </i>
    <i name="e_0_energy">   2664.02528016 </i>
   </energy>
  </scstep>
  <scstep>
   <time name="dav">   22.05   22.07</time>
   <time name="total">   22.16   22.18</time>
   <energy>
    <i name="e_fr_energy">     -9.94266282 </i>
    <i name="e_wo_entrp">     -9.94266282 </i>
    <i name="e_0_energy">     -9.94266282 </i>
   </energy>
  </scstep>
  <scstep>
   <time name="dav">   26.08   26.10</time>
   <time name="total">   26.10   26.12</time>
   <energy>
    <i name="e_fr_energy">   -376.17624173 </i>
    <i name="e_wo_entrp">   -376.17624173 </i>
    <i name="e_0_energy">   -376.17624173 </i>
   </energy>
  </scstep>
  <scstep>
   <time name="dav">   49.72   49.76</time>
   <time name="total">   49.74   49.77</time>
   <energy>
    <i name="e_fr_energy">   -399.74790124 </i>
    <i name="e_wo_entrp">   -399.74790124 </i>
    <i name="e_0_energy">   -399.74790124 </i>
   </energy>
  </scstep>
  <scstep>
   <time name="dav">   23.47   23.49</time>
   <time name="total">   24.14   24.16</time>
   <energy>
    <i name="e_fr_energy">   -400.54176823 </i>
    <i name="e_wo_entrp">   -400.54176823 </i>
    <i name="e_0_energy">   -400.54176823 </i>
   </energy>
  </scstep>
  <scstep>
   <time name="dav">   33.57   33.59</time>
   <time name="total">   34.28   34.30</time>
   <energy>
    <i name="e_fr_energy">   -322.12323537 </i>
    <i name="e_wo_entrp">   -322.12323537 </i>
    <i name="e_0_energy">   -322.12323537 </i>
   </energy>
  </scstep>
  <scstep>
   <time name="dav">   34.70   34.72</time>
   <time name="total">   35.41   35.43</time>
   <energy>
    <i name="e_fr_energy">   -328.84997838 </i>
    <i name="e_wo_entrp">   -328.84997838 </i>
    <i name="e_0_energy">   -328.84997838 </i>
   </energy>
  </scstep>
  <scstep>
   <time name="dav">   36.96   36.98</time>
   <time name="total">   37.67   37.70</time>
   <energy>
    <i name="e_fr_energy">   -331.42533641 </i>
    <i name="e_wo_entrp">   -331.42533641 </i>
    <i name="e_0_energy">   -331.42533641 </i>
   </energy>
  </scstep>
  <scstep>
   <time name="dav">   29.28   29.29</time>
   <time name="total">   29.99   30.00</time>
   <energy>
    <i name="e_fr_energy">   -329.95029077 </i>
    <i name="e_wo_entrp">   -329.95029077 </i>
    <i name="e_0_energy">   -329.95029077 </i>
   </energy>
  </scstep>
  <scstep>
   <time name="dav">   35.86   35.89</time>
   <time name="total">   36.57   36.60</time>
   <energy>
    <i name="e_fr_energy">   -329.79844534 </i>
    <i name="e_wo_entrp">   -329.79844534 </i>
    <i name="e_0_energy">   -329.79844534 </i>
   </energy>
  </scstep>
  <scstep>
   <time name="dav">   37.37   37.39</time>
   <time name="total">   38.08   38.11</time>
   <energy>
    <i name="e_fr_energy">   -329.74587094 </i>
    <i name="e_wo_entrp">   -329.74587094 </i>
    <i name="e_0_energy">   -329.74587094 </i>
   </energy>
  </scstep>
  <scstep>
   <time name="dav">   45.08   45.10</time>
   <time name="total">   45.79   45.82</time>
   <energy>
    <i name="e_fr_energy">   -329.74491197 </i>
    <i name="e_wo_entrp">   -329.74491197 </i>
    <i name="e_0_energy">   -329.74491197 </i>
   </energy>
  </scstep>
  <scstep>
   <time name="dav">   25.12   25.13</time>
   <time name="total">   25.83   25.85</time>
   <energy>
    <i name="e_fr_energy">   -329.74856487 </i>
    <i name="e_wo_entrp">   -329.74856487 </i>
    <i name="e_0_energy">   -329.74856487 </i>
   </energy>
  </scstep>
  <scstep>
   <time name="dav">   31.83   31.85</time>
   <time name="total">   32.55   32.57</time>
   <energy>
    <i name="e_fr_energy">   -329.74962509 </i>
    <i name="e_wo_entrp">   -329.74962509 </i>
    <i name="e_0_energy">   -329.74962509 </i>
   </energy>
  </scstep>
  <scstep>
   <time name="dav">   31.13   31.15</time>
   <time name="total">   31.84   31.86</time>
   <energy>
    <i name="e_fr_energy">   -329.74994804 </i>
    <i name="e_wo_entrp">   -329.74994804 </i>
    <i name="e_0_energy">   -329.74994804 </i>
   </energy>
  </scstep>
  <scstep>
   <time name="dav">   37.38   37.40</time>
   <time name="total">   38.09   38.12</time>
   <energy>
    <i name="e_fr_energy">   -329.75004743 </i>
    <i name="e_wo_entrp">   -329.75004743 </i>
    <i name="e_0_energy">   -329.75004743 </i>
   </energy>
  </scstep>
  <scstep>
   <time name="dav">   24.02   24.03</time>
   <time name="total">   24.75   24.76</time>
   <energy>
    <i name="e_fr_energy">   -329.75008273 </i>
    <i name="e_wo_entrp">   -329.75008273 </i>
    <i name="e_0_energy">   -329.75008273 </i>
   </energy>
  </scstep>
  <scstep>
   <time name="dav">   25.72   25.74</time>
   <time name="total">   25.78   25.81</time>
   <energy>
    <i name="alphaZ">   1092.96793109 </i>
    <i name="ewald"> -17260.89868890 </i>
    <i name="hartreedc">  -5679.71882309 </i>
    <i name="XCdc">   1139.53905394 </i>
    <i name="pawpsdc">  35962.69586991 </i>
    <i name="pawaedc"> -36179.21275440 </i>
    <i name="eentropy">      0.00000000 </i>
    <i name="bandstr">  -2397.82090986 </i>
    <i name="atom">  22992.69823266 </i>
    <i name="e_fr_energy">   -329.75008866 </i>
    <i name="e_wo_entrp">   -329.75008866 </i>
    <i name="e_0_energy">   -329.75008866 </i>
   </energy>
  </scstep>
  <structure>
   <crystal>
    <varray name="basis" >
     <v>       7.85863038       0.00005142      -0.13760597 </v>
     <v>       0.00005109       7.69057214       0.00001816 </v>
     <v>      -0.13792247       0.00001857       7.73517286 </v>
    </varray>
    <i name="volume">    467.34749763 </i>
    <varray name="rec_basis" >
     <v>       0.12728838      -0.00000085       0.00226962 </v>
     <v>      -0.00000086       0.13002934      -0.00000033 </v>
     <v>       0.00226441      -0.00000032       0.12931997 </v>
    </varray>
   </crystal>
   <varray name="positions" >
    <v>       0.00107267       0.00022511       0.48807134 </v>
    <v>       0.98497854       0.50022524       0.00357361 </v>
    <v>       0.99324360       0.50022336       0.50070585 </v>
    <v>       0.48095331       0.50022695       0.50512147 </v>
    <v>       0.92820820       0.00021210       0.04440368 </v>
    <v>       0.60103687       0.50019482       0.90022530 </v>
    <v>       0.43271782       0.00023375       0.55288020 </v>
    <v>       0.36909408       0.50031936       0.05781646 </v>
    <v>       0.24441175       0.23297222       0.24773699 </v>
    <v>       0.26022595       0.24454970       0.76822367 </v>
    <v>       0.24439644       0.76750299       0.24775697 </v>
    <v>       0.26021592       0.75590946       0.76822625 </v>
    <v>       0.72281847       0.24513237       0.23139389 </v>
    <v>       0.74086550       0.23142516       0.73876269 </v>
    <v>       0.72281264       0.75532015       0.23139427 </v>
    <v>       0.74085458       0.76900772       0.73876334 </v>
    <v>       0.27590087       0.23796290       0.00514023 </v>
    <v>       0.00802628       0.20411626       0.21848927 </v>
    <v>       0.28488403       0.00022793       0.32303483 </v>
    <v>       0.23384947       0.29321200       0.50083600 </v>
    <v>       0.02361721       0.30032190       0.75913815 </v>
    <v>       0.23152508       0.00022811       0.71484516 </v>
    <v>       0.27588370       0.76247988       0.00514481 </v>
    <v>       0.00801908       0.79633650       0.21848606 </v>
    <v>       0.20550139       0.50022346       0.22857249 </v>
    <v>       0.23383604       0.70724773       0.50082834 </v>
    <v>       0.02361314       0.70012951       0.75913470 </v>
    <v>       0.34291906       0.50023141       0.79425021 </v>
    <v>       0.73739485       0.29449447       0.98232513 </v>
    <v>       0.50055690       0.29754397       0.26282485 </v>
    <v>       0.72711528       0.00022350       0.20921972 </v>
    <v>       0.79186146       0.22965055       0.48645033 </v>
    <v>       0.51417585       0.20918804       0.69577361 </v>
    <v>       0.82361085       0.00021998       0.77080093 </v>
    <v>       0.73737684       0.70594317       0.98232339 </v>
    <v>       0.50053965       0.70289673       0.26280890 </v>
    <v>       0.79526326       0.50022362       0.25941112 </v>
    <v>       0.79185120       0.77079603       0.48644584 </v>
    <v>       0.51416365       0.79126596       0.69576316 </v>
    <v>       0.73201868       0.50022623       0.70147039 </v>
   </varray>
  </structure>
  <varray name="forces" >
   <v>       0.00176643       0.00017770       0.00316386 </v>
   <v>      -0.00112084      -0.00016455       0.00104023 </v>
   <v>      -0.00043210      -0.00011148       0.00421402 </v>
   <v>      -0.00282212       0.00009720      -0.00194029 </v>
   <v>      -0.00740549       0.00019976       0.00115774 </v>
   <v>      -0.00808760       0.00009598      -0.00580131 </v>
   <v>       0.00451969      -0.00012424      -0.00187626 </v>
   <v>      -0.00376216      -0.00019114      -0.00815327 </v>
   <v>       0.00766236       0.00223909      -0.00234886 </v>
   <v>       0.00180209      -0.00052383       0.00417767 </v>
   <v>       0.00887304      -0.00256912      -0.00260175 </v>
   <v>       0.00241576       0.00052035       0.00449857 </v>
   <v>      -0.00847064       0.00417248       0.00338455 </v>
   <v>      -0.00215424       0.00102020       0.00012044 </v>
   <v>      -0.00984100      -0.00436739       0.00367206 </v>
   <v>      -0.00296832      -0.00076683      -0.00010231 </v>
   <v>       0.00757055       0.00064630      -0.00334721 </v>
   <v>      -0.00432951      -0.00110560      -0.00687567 </v>
   <v>      -0.00259286       0.00030701       0.00093636 </v>
   <v>      -0.00490715       0.00164333       0.00320606 </v>
   <v>      -0.00050331      -0.00007171       0.00414288 </v>
   <v>       0.00243058      -0.00001706       0.00245850 </v>
   <v>       0.00759749      -0.00054947      -0.00375628 </v>
   <v>      -0.00506651       0.00118056      -0.00695256 </v>
   <v>      -0.00218413      -0.00013153       0.00428226 </v>
   <v>      -0.00501708      -0.00166840       0.00333749 </v>
   <v>      -0.00068568       0.00010684       0.00411986 </v>
   <v>      -0.00225974      -0.00009115      -0.00688111 </v>
   <v>      -0.00291858      -0.00014796       0.00190797 </v>
   <v>       0.00895937      -0.00437623       0.00743409 </v>
   <v>       0.00341591      -0.00011119      -0.00062588 </v>
   <v>       0.00519396       0.00221092      -0.00029990 </v>
   <v>      -0.00019572       0.00131970      -0.00406443 </v>
   <v>      -0.00336558      -0.00017793      -0.00079735 </v>
   <v>      -0.00268875       0.00031184       0.00203970 </v>
   <v>       0.01020444       0.00443304       0.00732073 </v>
   <v>       0.00346065       0.00016275      -0.00152651 </v>
   <v>       0.00531139      -0.00215396      -0.00050320 </v>
   <v>       0.00059299      -0.00144362      -0.00394363 </v>
   <v>       0.00200243       0.00001933      -0.00421725 </v>
  </varray>
  <varray name="stress" >
   <v>      18.66993260      -0.02508013     -14.16054828 </v>
   <v>      -0.02507956      13.57355002       0.00424472 </v>
   <v>     -14.16054779       0.00424499      13.00754855 </v>
  </varray>
  <energy>
   <i name="e_fr_energy">   -329.75008866 </i>
   <i name="e_wo_entrp">   -329.75008866 </i>
   <i name="e_0_energy">      0.00000000 </i>
  </energy>
  <kpoints>
   <generation param="Monkhorst-Pack">
    <v type="int" name="divisions">       4        4        4 </v>
    <v name="usershift">      0.00000000       0.00000000       0.00000000 </v>
    <v name="genvec1">      0.25000000       0.00000000      -0.00000000 </v>
    <v name="genvec2">      0.00000000       0.25000000       0.00000000 </v>
    <v name="genvec3">      0.00000000       0.00000000       0.25000000 </v>
    <v name="shift">      0.50000000       0.50000000       0.50000000 </v>
   </generation>
   <varray name="kpointlist" >
    <v>       0.12500000       0.12500000       0.12500000 </v>
    <v>       0.37500000       0.12500000       0.12500000 </v>
    <v>      -0.37500000       0.12500000       0.12500000 </v>
    <v>      -0.12500000       0.12500000       0.12500000 </v>
    <v>       0.12500000       0.37500000       0.12500000 </v>
    <v>       0.37500000       0.37500000       0.12500000 </v>
    <v>      -0.37500000       0.37500000       0.12500000 </v>
    <v>      -0.12500000       0.37500000       0.12500000 </v>
    <v>       0.12500000      -0.37500000       0.12500000 </v>
    <v>       0.37500000      -0.37500000       0.12500000 </v>
    <v>      -0.37500000      -0.37500000       0.12500000 </v>
    <v>      -0.12500000      -0.37500000       0.12500000 </v>
    <v>       0.12500000      -0.12500000       0.12500000 </v>
    <v>       0.37500000      -0.12500000       0.12500000 </v>
    <v>      -0.37500000      -0.12500000       0.12500000 </v>
    <v>      -0.12500000      -0.12500000       0.12500000 </v>
    <v>       0.12500000       0.12500000       0.37500000 </v>
    <v>       0.37500000       0.12500000       0.37500000 </v>
    <v>      -0.37500000       0.12500000       0.37500000 </v>
    <v>      -0.12500000       0.12500000       0.37500000 </v>
    <v>       0.12500000       0.37500000       0.37500000 </v>
    <v>       0.37500000       0.37500000       0.37500000 </v>
    <v>      -0.37500000       0.37500000       0.37500000 </v>
    <v>      -0.12500000       0.37500000       0.37500000 </v>
    <v>       0.12500000      -0.37500000       0.37500000 </v>
    <v>       0.37500000      -0.37500000       0.37500000 </v>
    <v>      -0.37500000      -0.37500000       0.37500000 </v>
    <v>      -0.12500000      -0.37500000       0.37500000 </v>
    <v>       0.12500000      -0.12500000       0.37500000 </v>
    <v>       0.37500000      -0.12500000       0.37500000 </v>
    <v>      -0.37500000      -0.12500000       0.37500000 </v>
    <v>      -0.12500000      -0.12500000       0.37500000 </v>
   </varray>
   <varray name="weights" >
    <v>       0.03125000 </v>
    <v>       0.03125000 </v>
    <v>       0.03125000 </v>
    <v>       0.03125000 </v>
    <v>       0.03125000 </v>
    <v>       0.03125000 </v>
    <v>       0.03125000 </v>
    <v>       0.03125000 </v>
    <v>       0.03125000 </v>
    <v>       0.03125000 </v>
    <v>       0.03125000 </v>
    <v>       0.03125000 </v>
    <v>       0.03125000 </v>
    <v>       0.03125000 </v>
    <v>       0.03125000 </v>
    <v>       0.03125000 </v>
    <v>       0.03125000 </v>
    <v>       0.03125000 </v>
    <v>       0.03125000 </v>
    <v>       0.03125000 </v>
    <v>       0.03125000 </v>
    <v>       0.03125000 </v>
    <v>       0.03125000 </v>
    <v>       0.03125000 </v>
    <v>       0.03125000 </v>
    <v>       0.03125000 </v>
    <v>       0.03125000 </v>
    <v>       0.03125000 </v>
    <v>       0.03125000 </v>
    <v>       0.03125000 </v>
    <v>       0.03125000 </v>
    <v>       0.03125000 </v>
   </varray>
   <varray name="tetrahedronlist"  type="int" >
    <v type="int" >        2        1        2        6       17 </v>
    <v type="int" >        2        1        5        6       17 </v>
    <v type="int" >        2        5        6       17       21 </v>
    <v type="int" >        2        2        6       17       18 </v>
    <v type="int" >        2        6       17       18       22 </v>
    <v type="int" >        2        6       17       21       22 </v>
    <v type="int" >        2        2        3        7       18 </v>
    <v type="int" >        2        2        6        7       18 </v>
    <v type="int" >        2        6        7       18       22 </v>
    <v type="int" >        2        3        7       18       19 </v>
    <v type="int" >        2        7       18       19       23 </v>
    <v type="int" >        2        7       18       22       23 </v>
    <v type="int" >        2        3        4        8       19 </v>
    <v type="int" >        2        3        7        8       19 </v>
    <v type="int" >        2        7        8       19       23 </v>
    <v type="int" >        2        4        8       19       20 </v>
    <v type="int" >        2        8       19       20       24 </v>
    <v type="int" >        2        8       19       23       24 </v>
    <v type="int" >        2        1        4        5       20 </v>
    <v type="int" >        2        4        5        8       20 </v>
    <v type="int" >        2        5        8       20       24 </v>
    <v type="int" >        2        1        5       17       20 </v>
    <v type="int" >        2        5       17       20       21 </v>
    <v type="int" >        2        5       20       21       24 </v>
    <v type="int" >        2        5        6       10       21 </v>
    <v type="int" >        2        5        9       10       21 </v>
    <v type="int" >        2        9       10       21       25 </v>
    <v type="int" >        2        6       10       21       22 </v>
    <v type="int" >        2       10       21       22       26 </v>
    <v type="int" >        2       10       21       25       26 </v>
    <v type="int" >        2        6        7       11       22 </v>
    <v type="int" >        2        6       10       11       22 </v>
    <v type="int" >        2       10       11       22       26 </v>
    <v type="int" >        2        7       11       22       23 </v>
    <v type="int" >        2       11       22       23       27 </v>
    <v type="int" >        2       11       22       26       27 </v>
    <v type="int" >        2        7        8       12       23 </v>
    <v type="int" >        2        7       11       12       23 </v>
    <v type="int" >        2       11       12       23       27 </v>
    <v type="int" >        2        8       12       23       24 </v>
    <v type="int" >        2       12       23       24       28 </v>
    <v type="int" >        2       12       23       27       28 </v>
    <v type="int" >        2        5        8        9       24 </v>
    <v type="int" >        2        8        9       12       24 </v>
    <v type="int" >        2        9       12       24       28 </v>
    <v type="int" >        2        5        9       21       24 </v>
    <v type="int" >        2        9       21       24       25 </v>
    <v type="int" >        2        9       24       25       28 </v>
    <v type="int" >        2        9       10       14       25 </v>
    <v type="int" >        2        9       13       14       25 </v>
    <v type="int" >        2       13       14       25       29 </v>
    <v type="int" >        2       10       14       25       26 </v>
    <v type="int" >        2       14       25       26       30 </v>
    <v type="int" >        2       14       25       29       30 </v>
    <v type="int" >        2       10       11       15       26 </v>
    <v type="int" >        2       10       14       15       26 </v>
    <v type="int" >        2       14       15       26       30 </v>
    <v type="int" >        2       11       15       26       27 </v>
    <v type="int" >        2       15       26       27       31 </v>
    <v type="int" >        2       15       26       30       31 </v>
    <v type="int" >        2       11       12       16       27 </v>
    <v type="int" >        2       11       15       16       27 </v>
    <v type="int" >        2       15       16       27       31 </v>
    <v type="int" >        2       12       16       27       28 </v>
    <v type="int" >        2       16       27       28       32 </v>
    <v type="int" >        2       16       27       31       32 </v>
    <v type="int" >        2        9       12       13       28 </v>
    <v type="int" >        2       12       13       16       28 </v>
    <v type="int" >        2       13       16       28       32 </v>
    <v type="int" >        2        9       13       25       28 </v>
    <v type="int" >        2       13       25       28       29 </v>
    <v type="int" >        2       13       28       29       32 </v>
    <v type="int" >        2        2       13       14       29 </v>
    <v type="int" >        2        1        2       13       29 </v>
    <v type="int" >        2        1        2       17       29 </v>
    <v type="int" >        2        2       14       29       30 </v>
    <v type="int" >        2        2       18       29       30 </v>
    <v type="int" >        2        2       17       18       29 </v>
    <v type="int" >        2        3       14       15       30 </v>
    <v type="int" >        2        2        3       14       30 </v>
    <v type="int" >        2        2        3       18       30 </v>
    <v type="int" >        2        3       15       30       31 </v>
    <v type="int" >        2        3       19       30       31 </v>
    <v type="int" >        2        3       18       19       30 </v>
    <v type="int" >        2        4       15       16       31 </v>
    <v type="int" >        2        3        4       15       31 </v>
    <v type="int" >        2        3        4       19       31 </v>
    <v type="int" >        2        4       16       31       32 </v>
    <v type="int" >        2        4       20       31       32 </v>
    <v type="int" >        2        4       19       20       31 </v>
    <v type="int" >        2        1       13       16       32 </v>
    <v type="int" >        2        1        4       16       32 </v>
    <v type="int" >        2        1        4       20       32 </v>
    <v type="int" >        2        1       13       29       32 </v>
    <v type="int" >        2        1       17       29       32 </v>
    <v type="int" >        2        1       17       20       32 </v>
    <v type="int" >        2       17       18       22       32 </v>
    <v type="int" >        2       17       21       22       32 </v>
    <v type="int" >        2       21       22       28       32 </v>
    <v type="int" >        2       18       22       31       32 </v>
    <v type="int" >        2       22       27       31       32 </v>
    <v type="int" >        2       22       27       28       32 </v>
    <v type="int" >        2       18       19       23       31 </v>
    <v type="int" >        2       18       22       23       31 </v>
    <v type="int" >        2       22       23       27       31 </v>
    <v type="int" >        2       19       23       30       31 </v>
    <v type="int" >        2       23       26       30       31 </v>
    <v type="int" >        2       23       26       27       31 </v>
    <v type="int" >        2       19       20       24       30 </v>
    <v type="int" >        2       19       23       24       30 </v>
    <v type="int" >        2       23       24       26       30 </v>
    <v type="int" >        2       20       24       29       30 </v>
    <v type="int" >        2       24       25       29       30 </v>
    <v type="int" >        2       24       25       26       30 </v>
    <v type="int" >        2       17       20       21       29 </v>
    <v type="int" >        2       20       21       24       29 </v>
    <v type="int" >        2       21       24       25       29 </v>
    <v type="int" >        2       17       21       29       32 </v>
    <v type="int" >        2       21       28       29       32 </v>
    <v type="int" >        2       21       25       28       29 </v>
    <v type="int" >        2       21       22       26       28 </v>
    <v type="int" >        2       21       25       26       28 </v>
    <v type="int" >        2       24       25       26       28 </v>
    <v type="int" >        2       22       26       27       28 </v>
    <v type="int" >        2       23       26       27       28 </v>
    <v type="int" >        2       23       24       26       28 </v>
    <v type="int" >        2       22       23       27       27 </v>
    <v type="int" >        2       22       26       27       27 </v>
    <v type="int" >        2       23       26       27       27 </v>
    <v type="int" >        2       21       24       25       25 </v>
    <v type="int" >        2       24       25       25       28 </v>
    <v type="int" >        2       21       25       25       28 </v>
    <v type="int" >        2       18       20       29       30 </v>
    <v type="int" >        2       17       18       20       29 </v>
    <v type="int" >        2       17       18       20       32 </v>
    <v type="int" >        2       18       19       20       30 </v>
    <v type="int" >        2       18       19       20       31 </v>
    <v type="int" >        2       18       20       31       32 </v>
    <v type="int" >        2       19       19       30       31 </v>
    <v type="int" >        2       18       19       19       30 </v>
    <v type="int" >        2       18       19       19       31 </v>
    <v type="int" >        2       17       17       29       32 </v>
    <v type="int" >        2       17       17       20       32 </v>
    <v type="int" >        2       17       17       20       29 </v>
    <v type="int" >        2        1       11       15       16 </v>
    <v type="int" >        2        1       11       12       16 </v>
    <v type="int" >        2        1        5       11       12 </v>
    <v type="int" >        2        1        2       11       15 </v>
    <v type="int" >        2        1        2        6       11 </v>
    <v type="int" >        2        1        5        6       11 </v>
    <v type="int" >        2        2       10       14       15 </v>
    <v type="int" >        2        2       10       11       15 </v>
    <v type="int" >        2        2        6       10       11 </v>
    <v type="int" >        2        2        3       10       14 </v>
    <v type="int" >        2        2        3        7       10 </v>
    <v type="int" >        2        2        6        7       10 </v>
    <v type="int" >        2        3        9       13       14 </v>
    <v type="int" >        2        3        9       10       14 </v>
    <v type="int" >        2        3        7        9       10 </v>
    <v type="int" >        2        3        4        9       13 </v>
    <v type="int" >        2        3        4        8        9 </v>
    <v type="int" >        2        3        7        8        9 </v>
    <v type="int" >        2        4       12       13       16 </v>
    <v type="int" >        2        4        9       12       13 </v>
    <v type="int" >        2        4        8        9       12 </v>
    <v type="int" >        2        1        4       12       16 </v>
    <v type="int" >        2        1        4        5       12 </v>
    <v type="int" >        2        4        5        8       12 </v>
    <v type="int" >        2        5        7       11       12 </v>
    <v type="int" >        2        5        7        8       12 </v>
    <v type="int" >        2        5        7        8        9 </v>
    <v type="int" >        2        5        6        7       11 </v>
    <v type="int" >        2        5        6        7       10 </v>
    <v type="int" >        2        5        7        9       10 </v>
    <v type="int" >        2        6        6       10       11 </v>
    <v type="int" >        2        6        6        7       11 </v>
    <v type="int" >        2        6        6        7       10 </v>
    <v type="int" >        2        8        8        9       12 </v>
    <v type="int" >        2        5        8        8        9 </v>
    <v type="int" >        2        5        8        8       12 </v>
    <v type="int" >        2        3        4       13       15 </v>
    <v type="int" >        2        4       13       15       16 </v>
    <v type="int" >        2        1       13       15       16 </v>
    <v type="int" >        2        3       13       14       15 </v>
    <v type="int" >        2        2       13       14       15 </v>
    <v type="int" >        2        1        2       13       15 </v>
    <v type="int" >        2        2        3       14       14 </v>
    <v type="int" >        2        3       14       14       15 </v>
    <v type="int" >        2        2       14       14       15 </v>
    <v type="int" >        2        1        4       16       16 </v>
    <v type="int" >        2        1       13       16       16 </v>
    <v type="int" >        2        4       13       16       16 </v>
   </varray>
   <i name="volumeweight">      0.00260417 </i>
  </kpoints>
  <scstep>
   <time name="total">   22.37   22.39</time>
   <energy>
    <i name="e_fr_energy">   -718.13435432 </i>
    <i name="e_wo_entrp">   -718.13435432 </i>
    <i name="e_0_energy">   -718.13435432 </i>
   </energy>
  </scstep>
  <scstep>
   <time name="total">   24.13   24.14</time>
   <energy>
    <i name="e_fr_energy">   -709.62013505 </i>
    <i name="e_wo_entrp">   -709.62013505 </i>
    <i name="e_0_energy">   -709.62013505 </i>
   </energy>
  </scstep>
  <scstep>
   <time name="total">   27.60   27.62</time>
   <energy>
    <i name="e_fr_energy">   -713.10748751 </i>
    <i name="e_wo_entrp">   -713.10748751 </i>
    <i name="e_0_energy">   -713.10748751 </i>
   </energy>
  </scstep>
  <scstep>
   <time name="total">   31.92   31.94</time>
   <energy>
    <i name="e_fr_energy">   -717.32934697 </i>
    <i name="e_wo_entrp">   -717.32934697 </i>
    <i name="e_0_energy">   -717.32934697 </i>
   </energy>
  </scstep>
  <scstep>
   <time name="total">   31.88   31.90</time>
   <energy>
    <i name="e_fr_energy">   -718.98841045 </i>
    <i name="e_wo_entrp">   -718.98841045 </i>
    <i name="e_0_energy">   -718.98841045 </i>
   </energy>
  </scstep>
  <scstep>
   <time name="total">   32.06   32.08</time>
   <energy>
    <i name="e_fr_energy">   -719.86743576 </i>
    <i name="e_wo_entrp">   -719.86743576 </i>
    <i name="e_0_energy">   -719.86743576 </i>
   </energy>
  </scstep>
  <scstep>
   <time name="total">   32.11   32.13</time>
   <energy>
    <i name="e_fr_energy">   -720.32026347 </i>
    <i name="e_wo_entrp">   -720.32026347 </i>
    <i name="e_0_energy">   -720.32026347 </i>
   </energy>
  </scstep>
  <scstep>
   <time name="total">   32.12   32.14</time>
   <energy>
    <i name="e_fr_energy">   -720.57341214 </i>
    <i name="e_wo_entrp">   -720.57341214 </i>
    <i name="e_0_energy">   -720.57341214 </i>
   </energy>
  </scstep>
  <scstep>
   <time name="total">   32.35   32.37</time>
   <energy>
    <i name="e_fr_energy">   -720.75332266 </i>
    <i name="e_wo_entrp">   -720.75332266 </i>
    <i name="e_0_energy">   -720.75332266 </i>
   </energy>
  </scstep>
  <scstep>
   <time name="total">   32.36   32.38</time>
   <energy>
    <i name="e_fr_energy">   -720.99323996 </i>
    <i name="e_wo_entrp">   -720.99323996 </i>
    <i name="e_0_energy">   -720.99323996 </i>
   </energy>
  </scstep>
  <scstep>
   <time name="total">   32.65   32.67</time>
   <energy>
    <i name="e_fr_energy">   -720.98160666 </i>
    <i name="e_wo_entrp">   -720.98160666 </i>
    <i name="e_0_energy">   -720.98160666 </i>
   </energy>
  </scstep>
  <scstep>
   <time name="total">   32.63   32.65</time>
   <energy>
    <i name="e_fr_energy">   -721.03208522 </i>
    <i name="e_wo_entrp">   -721.03208522 </i>
    <i name="e_0_energy">   -721.03208522 </i>
   </energy>
  </scstep>
  <scstep>
   <time name="total">   32.70   32.72</time>
   <energy>
    <i name="e_fr_energy">   -721.04085851 </i>
    <i name="e_wo_entrp">   -721.04085851 </i>
    <i name="e_0_energy">   -721.04085851 </i>
   </energy>
  </scstep>
  <scstep>
   <time name="total">   32.65   32.67</time>
   <energy>
    <i name="e_fr_energy">   -721.07580532 </i>
    <i name="e_wo_entrp">   -721.07580532 </i>
    <i name="e_0_energy">   -721.07580532 </i>
   </energy>
  </scstep>
  <scstep>
   <time name="total">   32.67   32.69</time>
   <energy>
    <i name="e_fr_energy">   -721.07326880 </i>
    <i name="e_wo_entrp">   -721.07326880 </i>
    <i name="e_0_energy">   -721.07326880 </i>
   </energy>
  </scstep>
  <scstep>
   <time name="total">   32.57   32.59</time>
   <energy>
    <i name="e_fr_energy">   -721.09643519 </i>
    <i name="e_wo_entrp">   -721.09643519 </i>
    <i name="e_0_energy">   -721.09643519 </i>
   </energy>
  </scstep>
  <scstep>
   <time name="total">   32.58   32.60</time>
   <energy>
    <i name="e_fr_energy">   -721.09781900 </i>
    <i name="e_wo_entrp">   -721.09781900 </i>
    <i name="e_0_energy">   -721.09781900 </i>
   </energy>
  </scstep>
  <scstep>
   <time name="total">   32.54   32.56</time>
   <energy>
    <i name="e_fr_energy">   -721.11166501 </i>
    <i name="e_wo_entrp">   -721.11166501 </i>
    <i name="e_0_energy">   -721.11166501 </i>
   </energy>
  </scstep>
  <scstep>
   <time name="total">   32.55   32.57</time>
   <energy>
    <i name="e_fr_energy">   -721.11449681 </i>
    <i name="e_wo_entrp">   -721.11449681 </i>
    <i name="e_0_energy">   -721.11449681 </i>
   </energy>
  </scstep>
  <scstep>
   <time name="total">   32.52   32.54</time>
   <energy>
    <i name="e_fr_energy">   -721.11693101 </i>
    <i name="e_wo_entrp">   -721.11693101 </i>
    <i name="e_0_energy">   -721.11693101 </i>
   </energy>
  </scstep>
  <scstep>
   <time name="total">   32.53   32.55</time>
   <energy>
    <i name="e_fr_energy">   -721.12898380 </i>
    <i name="e_wo_entrp">   -721.12898380 </i>
    <i name="e_0_energy">   -721.12898380 </i>
   </energy>
  </scstep>
  <scstep>
   <time name="total">   32.45   32.47</time>
   <energy>
    <i name="e_fr_energy">   -721.12443918 </i>
    <i name="e_wo_entrp">   -721.12443918 </i>
    <i name="e_0_energy">   -721.12443918 </i>
   </energy>
  </scstep>
  <scstep>
   <time name="total">   32.26   32.29</time>
   <energy>
    <i name="e_fr_energy">   -721.12447545 </i>
    <i name="e_wo_entrp">   -721.12447545 </i>
    <i name="e_0_energy">   -721.12447545 </i>
   </energy>
  </scstep>
  <scstep>
   <time name="total">   32.52   32.54</time>
   <energy>
    <i name="e_fr_energy">   -721.11941425 </i>
    <i name="e_wo_entrp">   -721.11941425 </i>
    <i name="e_0_energy">   -721.11941425 </i>
   </energy>
  </scstep>
  <scstep>
   <time name="total">   32.18   32.20</time>
   <energy>
    <i name="e_fr_energy">   -721.12442241 </i>
    <i name="e_wo_entrp">   -721.12442241 </i>
    <i name="e_0_energy">   -721.12442241 </i>
   </energy>
  </scstep>
  <scstep>
   <time name="total">   32.15   32.17</time>
   <energy>
    <i name="e_fr_energy">   -721.11999508 </i>
    <i name="e_wo_entrp">   -721.11999508 </i>
    <i name="e_0_energy">   -721.11999508 </i>
   </energy>
  </scstep>
  <scstep>
   <time name="total">   32.14   32.16</time>
   <energy>
    <i name="e_fr_energy">   -721.12828964 </i>
    <i name="e_wo_entrp">   -721.12828964 </i>
    <i name="e_0_energy">   -721.12828964 </i>
   </energy>
  </scstep>
  <scstep>
   <time name="total">   32.18   32.20</time>
   <energy>
    <i name="e_fr_energy">   -721.12362693 </i>
    <i name="e_wo_entrp">   -721.12362693 </i>
    <i name="e_0_energy">   -721.12362693 </i>
   </energy>
  </scstep>
  <scstep>
   <time name="total">   31.89   31.91</time>
   <energy>
    <i name="e_fr_energy">   -721.12824117 </i>
    <i name="e_wo_entrp">   -721.12824117 </i>
    <i name="e_0_energy">   -721.12824117 </i>
   </energy>
  </scstep>
  <scstep>
   <time name="total">   32.19   32.21</time>
   <energy>
    <i name="e_fr_energy">   -721.12475294 </i>
    <i name="e_wo_entrp">   -721.12475294 </i>
    <i name="e_0_energy">   -721.12475294 </i>
   </energy>
  </scstep>
  <scstep>
   <time name="total">   32.05   32.07</time>
   <energy>
    <i name="e_fr_energy">   -721.13513115 </i>
    <i name="e_wo_entrp">   -721.13513115 </i>
    <i name="e_0_energy">   -721.13513115 </i>
   </energy>
  </scstep>
  <scstep>
   <time name="total">   32.08   32.09</time>
   <energy>
    <i name="e_fr_energy">   -721.12823684 </i>
    <i name="e_wo_entrp">   -721.12823684 </i>
    <i name="e_0_energy">   -721.12823684 </i>
   </energy>
  </scstep>
  <scstep>
   <time name="total">   31.78   31.80</time>
   <energy>
    <i name="e_fr_energy">   -721.13253997 </i>
    <i name="e_wo_entrp">   -721.13253997 </i>
    <i name="e_0_energy">   -721.13253997 </i>
   </energy>
  </scstep>
  <scstep>
   <time name="total">   31.92   31.94</time>
   <energy>
    <i name="e_fr_energy">   -721.13100830 </i>
    <i name="e_wo_entrp">   -721.13100830 </i>
    <i name="e_0_energy">   -721.13100830 </i>
   </energy>
  </scstep>
  <scstep>
   <time name="total">   31.75   31.77</time>
   <energy>
    <i name="e_fr_energy">   -721.13367528 </i>
    <i name="e_wo_entrp">   -721.13367528 </i>
    <i name="e_0_energy">   -721.13367528 </i>
   </energy>
  </scstep>
  <scstep>
   <time name="total">   31.72   31.74</time>
   <energy>
    <i name="e_fr_energy">   -721.13167941 </i>
    <i name="e_wo_entrp">   -721.13167941 </i>
    <i name="e_0_energy">   -721.13167941 </i>
   </energy>
  </scstep>
  <scstep>
   <time name="total">   31.86   31.89</time>
   <energy>
    <i name="e_fr_energy">   -721.13697273 </i>
    <i name="e_wo_entrp">   -721.13697273 </i>
    <i name="e_0_energy">   -721.13697273 </i>
   </energy>
  </scstep>
  <scstep>
   <time name="total">   31.79   31.81</time>
   <energy>
    <i name="e_fr_energy">   -721.13161314 </i>
    <i name="e_wo_entrp">   -721.13161314 </i>
    <i name="e_0_energy">   -721.13161314 </i>
   </energy>
  </scstep>
  <kpoints>
   <generation param="Monkhorst-Pack">
    <v type="int" name="divisions">       4        4        4 </v>
    <v name="usershift">      0.00000000       0.00000000       0.00000000 </v>
    <v name="genvec1">      0.25000000       0.00000000      -0.00000000 </v>
    <v name="genvec2">      0.00000000       0.25000000       0.00000000 </v>
    <v name="genvec3">      0.00000000       0.00000000       0.25000000 </v>
    <v name="shift">      0.50000000       0.50000000       0.50000000 </v>
   </generation>
   <varray name="kpointlist" >
    <v>       0.12500000       0.12500000       0.12500000 </v>
[...]
       <r>     5.2236     0.0000   140.0000 </r>
       <r>     5.4047     0.0000   140.0000 </r>
       <r>     5.5858     0.0000   140.0000 </r>
       <r>     5.7670     0.0000   140.0000 </r>
       <r>     5.9481     0.0000   140.0000 </r>
       <r>     6.1292     0.0000   140.0000 </r>
       <r>     6.3103     0.0000   140.0000 </r>
       <r>     6.4914     0.0000   140.0000 </r>
       <r>     6.6726     5.3703   140.0125 </r>
       <r>     6.8537     2.3574   140.3558 </r>
       <r>     7.0348     9.7851   141.4163 </r>
       <r>     7.2159    18.2553   144.0147 </r>
       <r>     7.3970     4.8558   146.0539 </r>
       <r>     7.5782    13.6476   148.8777 </r>
       <r>     7.7593    14.4255   151.8736 </r>
       <r>     7.9404    17.8189   154.6757 </r>
       <r>     8.1215    17.0117   158.5324 </r>
       <r>     8.3026    18.2820   161.2498 </r>
       <r>     8.4838     3.9424   163.8676 </r>
       <r>     8.6649     0.0000   164.0000 </r>
       <r>     8.8460     0.0000   164.0000 </r>
       <r>     9.0271     3.0508   164.0366 </r>
       <r>     9.2082    35.4100   167.9310 </r>
       <r>     9.3894    39.9340   178.0398 </r>
       <r>     9.5705    32.3734   186.1611 </r>
       <r>     9.7516     6.7070   191.7172 </r>
       <r>     9.9327     0.0000   192.0000 </r>
       <r>    10.1138     0.0000   192.0000 </r>
       <r>    10.2950     0.0000   192.0000 </r>
       <r>    10.4761     0.0000   192.0000 </r>
       <r>    10.6572     0.0000   192.0000 </r>
       <r>    10.8383     0.0000   192.0000 </r>
       <r>    11.0194     0.0000   192.0000 </r>
       <r>    11.2006     0.0000   192.0000 </r>
       <r>    11.3817     0.0000   192.0000 </r>
       <r>    11.5628     0.0000   192.0000 </r>
       <r>    11.7439     0.0000   192.0000 </r>
       <r>    11.9250     0.0000   192.0000 </r>
       <r>    12.1062     0.0000   192.0000 </r>
       <r>    12.2873     0.0000   192.0000 </r>
      </set>
      <set comment="spin 2">
       <r>   -42.0487     0.0000     0.0000 </r>
       <r>   -41.8675     0.0000     0.0000 </r>
       <r>   -41.6864     0.0000     0.0000 </r>
       <r>   -41.5053     0.0000     0.0000 </r>
       <r>   -41.3242     0.0000     0.0000 </r>
       <r>   -41.1431     0.0000     0.0000 </r>
       <r>   -40.9619     0.0000     0.0000 </r>
       <r>   -40.7808     0.0000     0.0000 </r>
       <r>   -40.5997     0.0000     0.0000 </r>
       <r>   -40.4186     0.0000     0.0000 </r>
       <r>   -40.2375     0.0000     0.0000 </r>
       <r>   -40.0563     0.0000     0.0000 </r>
       <r>   -39.8752     0.0000     0.0000 </r>
       <r>   -39.6941     0.0000     0.0000 </r>
       <r>   -39.5130     0.0000     2.0000 </r>
       <r>   -39.3319     0.0000     3.0000 </r>
       <r>   -39.1507     0.0000     3.0000 </r>
       <r>   -38.9696     0.0000     4.0000 </r>
       <r>   -38.7885     0.0000     4.0000 </r>
       <r>   -38.6074     0.0000     4.0000 </r>
       <r>   -38.4263     0.0000     4.0000 </r>
       <r>   -38.2451     0.0000     4.0000 </r>
       <r>   -38.0640     0.0000     4.0000 </r>
       <r>   -37.8829     0.0000     4.0000 </r>
       <r>   -37.7018     0.0000     4.0000 </r>
       <r>   -37.5207     0.0000     4.0000 </r>
       <r>   -37.3395     0.0000     4.0000 </r>
       <r>   -37.1584     0.0000     4.0000 </r>
       <r>   -36.9773     0.0000     4.0000 </r>
       <r>   -36.7962     0.0000     4.0000 </r>
       <r>   -36.6151     0.0000     4.0000 </r>
       <r>   -36.4339     0.0000     4.0000 </r>
       <r>   -36.2528     0.0000     4.0000 </r>
       <r>   -36.0717     0.0000     4.0000 </r>
       <r>   -35.8906     0.0000     4.0000 </r>
       <r>   -35.7095     0.0000     4.0000 </r>
       <r>   -35.5283     0.0000     4.0000 </r>
       <r>   -35.3472     0.0000     4.0000 </r>
       <r>   -35.1661     0.0000     4.0000 </r>
       <r>   -34.9850     0.0000     4.0000 </r>
       <r>   -34.8039     0.0000     4.0000 </r>
       <r>   -34.6227     0.0000     4.0000 </r>
       <r>   -34.4416     0.0000     4.0000 </r>
       <r>   -34.2605     0.0000     4.0000 </r>
       <r>   -34.0794     0.0000     4.0000 </r>
       <r>   -33.8983     0.0000     4.0000 </r>
       <r>   -33.7172     0.0000     4.0000 </r>
       <r>   -33.5360     0.0000     4.0000 </r>
       <r>   -33.3549     0.0000     4.0000 </r>
       <r>   -33.1738     0.0000     4.0000 </r>
       <r>   -32.9927     0.0000     4.0000 </r>
       <r>   -32.8116     0.0000     4.0000 </r>
       <r>   -32.6304     0.0000     4.0000 </r>
       <r>   -32.4493     0.0000     4.0000 </r>
       <r>   -32.2682     0.0000     4.0000 </r>
       <r>   -32.0871     0.0000     4.0000 </r>
       <r>   -31.9060     0.0000     4.0000 </r>
       <r>   -31.7248     0.0000     4.0000 </r>
       <r>   -31.5437     0.0000     4.0000 </r>
       <r>   -31.3626     0.0000     4.0000 </r>
       <r>   -31.1815     0.0000     4.0000 </r>
       <r>   -31.0004     0.0000     4.0000 </r>
       <r>   -30.8192     0.0000     4.0000 </r>
       <r>   -30.6381     0.0000     4.0000 </r>
       <r>   -30.4570     0.0000     4.0000 </r>
       <r>   -30.2759     0.0000     4.0000 </r>
       <r>   -30.0948     0.0000     4.0000 </r>
       <r>   -29.9136     0.0000     4.0000 </r>
       <r>   -29.7325     0.0000     4.0000 </r>
       <r>   -29.5514     0.0000     4.0000 </r>
       <r>   -29.3703     0.0000     4.0000 </r>
       <r>   -29.1892     0.0000     4.0000 </r>
       <r>   -29.0080     0.0000     4.0000 </r>
       <r>   -28.8269     0.0000     4.0000 </r>
       <r>   -28.6458     0.0000     4.0000 </r>
       <r>   -28.4647   151.5644    11.9397 </r>
       <r>   -28.2836     0.0000    28.0000 </r>
       <r>   -28.1024     0.0000    28.0000 </r>
       <r>   -27.9213     0.0000    28.0000 </r>
       <r>   -27.7402     0.0000    28.0000 </r>
       <r>   -27.5591     0.0000    28.0000 </r>
       <r>   -27.3780     0.0000    28.0000 </r>
       <r>   -27.1968     0.0000    28.0000 </r>
       <r>   -27.0157     0.0000    28.0000 </r>
       <r>   -26.8346     0.0000    28.0000 </r>
       <r>   -26.6535     0.0000    28.0000 </r>
       <r>   -26.4724     0.0000    28.0000 </r>
       <r>   -26.2912     0.0000    28.0000 </r>
       <r>   -26.1101     0.0000    28.0000 </r>
       <r>   -25.9290     0.0000    28.0000 </r>
       <r>   -25.7479     0.0000    29.0000 </r>
       <r>   -25.5668     0.0000    30.0000 </r>
       <r>   -25.3856     0.0000    31.0000 </r>
       <r>   -25.2045     0.0000    32.0000 </r>
       <r>   -25.0234     0.0000    32.0000 </r>
       <r>   -24.8423     0.0000    32.0000 </r>
       <r>   -24.6612     0.0000    32.0000 </r>
       <r>   -24.4800     0.0000    32.0000 </r>
       <r>   -24.2989     0.0000    32.0000 </r>
       <r>   -24.1178     0.0000    32.0000 </r>
       <r>   -23.9367     0.0000    32.0000 </r>
       <r>   -23.7556     0.0000    32.0000 </r>
       <r>   -23.5744     0.0000    32.0000 </r>
       <r>   -23.3933     0.0000    32.0000 </r>
       <r>   -23.2122     0.0000    32.0000 </r>
       <r>   -23.0311     0.0000    32.0000 </r>
       <r>   -22.8500     0.0000    32.0000 </r>
       <r>   -22.6688     0.0000    32.0000 </r>
       <r>   -22.4877     0.0000    32.0000 </r>
       <r>   -22.3066     0.0000    32.0000 </r>
       <r>   -22.1255     0.0000    32.0000 </r>
       <r>   -21.9444     0.0000    32.0000 </r>
       <r>   -21.7632     0.0000    32.0000 </r>
       <r>   -21.5821     0.0000    32.0000 </r>
       <r>   -21.4010     0.0000    32.0000 </r>
       <r>   -21.2199     0.0000    32.0000 </r>
       <r>   -21.0388     0.0000    32.0000 </r>
       <r>   -20.8576     0.0000    32.0000 </r>
       <r>   -20.6765     0.0000    32.0000 </r>
       <r>   -20.4954     0.0000    32.0000 </r>
       <r>   -20.3143     0.0000    32.0000 </r>
       <r>   -20.1332     0.0000    32.0000 </r>
       <r>   -19.9520     0.0000    32.0000 </r>
       <r>   -19.7709     0.0000    32.0000 </r>
       <r>   -19.5898     0.0000    32.0000 </r>
       <r>   -19.4087     0.0000    32.0000 </r>
       <r>   -19.2276     0.0000    32.0000 </r>
       <r>   -19.0464     0.0000    32.0000 </r>
       <r>   -18.8653     0.0000    32.0000 </r>
       <r>   -18.6842     0.0000    32.0000 </r>
       <r>   -18.5031     0.0000    32.0000 </r>
       <r>   -18.3220     0.0000    32.0000 </r>
       <r>   -18.1408     0.0000    32.0000 </r>
       <r>   -17.9597     0.0000    32.0000 </r>
       <r>   -17.7786     0.0000    32.0000 </r>
       <r>   -17.5975     0.0000    32.0000 </r>
       <r>   -17.4164     0.0000    32.0000 </r>
       <r>   -17.2352     0.0000    32.0000 </r>
       <r>   -17.0541     0.0000    32.0000 </r>
       <r>   -16.8730     0.0000    32.0000 </r>
       <r>   -16.6919     0.0000    32.0000 </r>
       <r>   -16.5108     0.0000    32.0000 </r>
       <r>   -16.3297     0.0000    32.0000 </r>
       <r>   -16.1485     0.0000    32.0000 </r>
       <r>   -15.9674     0.0000    32.0000 </r>
       <r>   -15.7863     0.0000    32.0000 </r>
       <r>   -15.6052     0.0000    32.0000 </r>
       <r>   -15.4241     0.0000    32.0000 </r>
       <r>   -15.2429     0.0000    32.0000 </r>
       <r>   -15.0618     0.0000    32.0000 </r>
       <r>   -14.8807     0.0000    32.0000 </r>
       <r>   -14.6996     0.0000    32.0000 </r>
       <r>   -14.5185     0.0000    32.0000 </r>
       <r>   -14.3373     0.0000    32.0000 </r>
       <r>   -14.1562     0.0000    32.0000 </r>
       <r>   -13.9751     0.0000    32.0000 </r>
       <r>   -13.7940     0.0000    32.0000 </r>
       <r>   -13.6129     0.0000    32.0000 </r>
       <r>   -13.4317     0.0000    32.0000 </r>
       <r>   -13.2506     6.0388    32.2995 </r>
       <r>   -13.0695    14.7014    34.3319 </r>
       <r>   -12.8884     3.8193    35.9560 </r>
       <r>   -12.7073    11.3610    37.2528 </r>
       <r>   -12.5261     6.2613    38.6726 </r>
       <r>   -12.3450    21.5015    40.6477 </r>
       <r>   -12.1639    27.1666    43.6858 </r>
       <r>   -11.9828     7.3486    47.0341 </r>
       <r>   -11.8017    21.5290    52.4656 </r>
       <r>   -11.6205     0.0000    56.0000 </r>
       <r>   -11.4394     0.0000    56.0000 </r>
       <r>   -11.2583     0.0000    56.0000 </r>
       <r>   -11.0772     0.0000    56.0000 </r>
       <r>   -10.8961     0.0000    56.0000 </r>
       <r>   -10.7149     0.0000    56.0000 </r>
       <r>   -10.5338     0.0000    56.0000 </r>
       <r>   -10.3527     0.0000    56.0000 </r>
       <r>   -10.1716     0.0000    56.0000 </r>
       <r>    -9.9905     0.0000    56.0000 </r>
       <r>    -9.8093     0.0000    56.0000 </r>
       <r>    -9.6282     0.0000    56.0000 </r>
       <r>    -9.4471     0.0000    56.0000 </r>
       <r>    -9.2660    24.8624    56.6732 </r>
       <r>    -9.0849    28.6029    59.5593 </r>
       <r>    -8.9037    12.1800    61.7432 </r>
       <r>    -8.7226     9.7763    64.6853 </r>
       <r>    -8.5415     0.7455    65.0025 </r>
       <r>    -8.3604     7.0712    67.0696 </r>
       <r>    -8.1793     0.0000    68.0000 </r>
       <r>    -7.9981     0.0000    68.0000 </r>
       <r>    -7.8170     0.0000    68.0000 </r>
       <r>    -7.6359     0.0000    68.0000 </r>
       <r>    -7.4548     0.0000    68.0000 </r>
       <r>    -7.2737     0.0000    68.0000 </r>
       <r>    -7.0925     0.0000    68.0000 </r>
       <r>    -6.9114     0.0000    68.0000 </r>
       <r>    -6.7303     0.0000    68.0000 </r>
       <r>    -6.5492     0.0000    68.0000 </r>
       <r>    -6.3681     0.0000    68.0000 </r>
       <r>    -6.1869     0.0000    68.0000 </r>
       <r>    -6.0058     0.0000    68.0000 </r>
       <r>    -5.8247     0.0000    68.0000 </r>
       <r>    -5.6436     0.0000    68.0000 </r>
       <r>    -5.4625     0.0000    68.0000 </r>
       <r>    -5.2813     0.0000    68.0000 </r>
       <r>    -5.1002     0.0000    68.0000 </r>
       <r>    -4.9191     0.0000    68.0000 </r>
       <r>    -4.7380     0.0000    68.0000 </r>
       <r>    -4.5569     0.0000    68.0000 </r>
       <r>    -4.3757     0.0000    68.0000 </r>
       <r>    -4.1946     0.0000    68.0000 </r>
       <r>    -4.0135     0.0000    68.0000 </r>
       <r>    -3.8324     0.0000    68.0000 </r>
       <r>    -3.6513     0.0000    68.0000 </r>
       <r>    -3.4701     0.0000    68.0000 </r>
       <r>    -3.2890     0.0000    68.0000 </r>
       <r>    -3.1079     0.0000    68.0000 </r>
       <r>    -2.9268     0.0000    68.0000 </r>
       <r>    -2.7457     0.0000    68.0000 </r>
       <r>    -2.5645     0.0000    68.0000 </r>
       <r>    -2.3834     0.0000    68.0000 </r>
       <r>    -2.2023     0.0000    68.0000 </r>
       <r>    -2.0212     0.0000    68.0000 </r>
       <r>    -1.8401     0.0000    68.0000 </r>
       <r>    -1.6589     0.0000    68.0000 </r>
       <r>    -1.4778     0.0000    68.0000 </r>
       <r>    -1.2967     0.0000    68.0000 </r>
       <r>    -1.1156     0.0000    68.0000 </r>
       <r>    -0.9345     0.0000    68.0000 </r>
       <r>    -0.7533     0.0000    68.0000 </r>
       <r>    -0.5722     0.0000    68.0000 </r>
       <r>    -0.3911     0.0000    68.0000 </r>
       <r>    -0.2100     0.0000    68.0000 </r>
       <r>    -0.0289     9.0136    68.4931 </r>
       <r>     0.1523    23.8948    71.8783 </r>
       <r>     0.3334    11.9486    74.9087 </r>
       <r>     0.5145    19.5612    77.3430 </r>
       <r>     0.6956    21.6865    81.2243 </r>
       <r>     0.8767    22.3894    85.0344 </r>
       <r>     1.0579    28.5333    88.3698 </r>
       <r>     1.2390    14.6834    91.8762 </r>
       <r>     1.4201    18.9478    95.2000 </r>
       <r>     1.6012    12.2806    98.5273 </r>
       <r>     1.7823    14.9963   101.4517 </r>
       <r>     1.9634    12.8918   104.2266 </r>
       <r>     2.1446    17.5808   106.7503 </r>
       <r>     2.3257    14.4531   109.2386 </r>
       <r>     2.5068    12.6301   111.6886 </r>
       <r>     2.6879    26.2687   114.6460 </r>
       <r>     2.8690    25.2220   117.1631 </r>
       <r>     3.0502    16.7476   120.5104 </r>
       <r>     3.2313    16.0606   124.0305 </r>
       <r>     3.4124    69.4997   127.6110 </r>
       <r>     3.5935    17.0774   131.8060 </r>
       <r>     3.7746    29.9070   135.3901 </r>
       <r>     3.9558     6.0773   138.7792 </r>
       <r>     4.1369     0.0000   140.0000 </r>
       <r>     4.3180     0.0000   140.0000 </r>
       <r>     4.4991     0.0000   140.0000 </r>
       <r>     4.6802     0.0000   140.0000 </r>
       <r>     4.8614     0.0000   140.0000 </r>
       <r>     5.0425     0.0000   140.0000 </r>
       <r>     5.2236     0.0000   140.0000 </r>
       <r>     5.4047     0.0000   140.0000 </r>
       <r>     5.5858     0.0000   140.0000 </r>
       <r>     5.7670     0.0000   140.0000 </r>
       <r>     5.9481     0.0000   140.0000 </r>
       <r>     6.1292     0.0000   140.0000 </r>
       <r>     6.3103     0.0000   140.0000 </r>
       <r>     6.4914     0.0000   140.0000 </r>
       <r>     6.6726     5.4343   140.0128 </r>
       <r>     6.8537     2.3576   140.3560 </r>
       <r>     7.0348     9.7990   141.4168 </r>
       <r>     7.2159    18.2111   144.0157 </r>
       <r>     7.3970     4.8690   146.0541 </r>
       <r>     7.5782    13.6464   148.8784 </r>
       <r>     7.7593    14.4208   151.8743 </r>
       <r>     7.9404    17.8256   154.6765 </r>
       <r>     8.1215    17.0113   158.5331 </r>
       <r>     8.3026    17.7200   161.2506 </r>
       <r>     8.4838     3.9396   163.8678 </r>
       <r>     8.6649     0.0000   164.0000 </r>
       <r>     8.8460     0.0000   164.0000 </r>
       <r>     9.0271     3.0547   164.0367 </r>
       <r>     9.2082    35.4058   167.9316 </r>
       <r>     9.3894    39.9392   178.0403 </r>
       <r>     9.5705    32.3645   186.1616 </r>
       <r>     9.7516     6.6964   191.7178 </r>
       <r>     9.9327     0.0000   192.0000 </r>
       <r>    10.1138     0.0000   192.0000 </r>
       <r>    10.2950     0.0000   192.0000 </r>
       <r>    10.4761     0.0000   192.0000 </r>
       <r>    10.6572     0.0000   192.0000 </r>
       <r>    10.8383     0.0000   192.0000 </r>
       <r>    11.0194     0.0000   192.0000 </r>
       <r>    11.2006     0.0000   192.0000 </r>
       <r>    11.3817     0.0000   192.0000 </r>
       <r>    11.5628     0.0000   192.0000 </r>
       <r>    11.7439     0.0000   192.0000 </r>
       <r>    11.9250     0.0000   192.0000 </r>
       <r>    12.1062     0.0000   192.0000 </r>
       <r>    12.2873     0.0000   192.0000 </r>
      </set>
     </set>
    </array>
   </total>
  </dos>
 </calculation>
 <structure name="finalpos" >
  <crystal>
   <varray name="basis" >
    <v>       7.85863038       0.00005142      -0.13760597 </v>
    <v>       0.00005109       7.69057214       0.00001816 </v>
    <v>      -0.13792247       0.00001857       7.73517286 </v>
   </varray>
   <i name="volume">    467.34749763 </i>
   <varray name="rec_basis" >
    <v>       0.12728838      -0.00000085       0.00226962 </v>
    <v>      -0.00000086       0.13002934      -0.00000033 </v>
    <v>       0.00226441      -0.00000032       0.12931997 </v>
   </varray>
  </crystal>
  <varray name="positions" >
   <v>       0.00107267       0.00022511       0.48807134 </v>
   <v>       0.98497854       0.50022524       0.00357361 </v>
   <v>       0.99324360       0.50022336       0.50070585 </v>
   <v>       0.48095331       0.50022695       0.50512147 </v>
   <v>       0.92820820       0.00021210       0.04440368 </v>
   <v>       0.60103687       0.50019482       0.90022530 </v>
   <v>       0.43271782       0.00023375       0.55288020 </v>
   <v>       0.36909408       0.50031936       0.05781646 </v>
   <v>       0.24441175       0.23297222       0.24773699 </v>
   <v>       0.26022595       0.24454970       0.76822367 </v>
   <v>       0.24439644       0.76750299       0.24775697 </v>
   <v>       0.26021592       0.75590946       0.76822625 </v>
   <v>       0.72281847       0.24513237       0.23139389 </v>
   <v>       0.74086550       0.23142516       0.73876269 </v>
   <v>       0.72281264       0.75532015       0.23139427 </v>
   <v>       0.74085458       0.76900772       0.73876334 </v>
   <v>       0.27590087       0.23796290       0.00514023 </v>
   <v>       0.00802628       0.20411626       0.21848927 </v>
   <v>       0.28488403       0.00022793       0.32303483 </v>
   <v>       0.23384947       0.29321200       0.50083600 </v>
   <v>       0.02361721       0.30032190       0.75913815 </v>
   <v>       0.23152508       0.00022811       0.71484516 </v>
   <v>       0.27588370       0.76247988       0.00514481 </v>
   <v>       0.00801908       0.79633650       0.21848606 </v>
   <v>       0.20550139       0.50022346       0.22857249 </v>
   <v>       0.23383604       0.70724773       0.50082834 </v>
   <v>       0.02361314       0.70012951       0.75913470 </v>
   <v>       0.34291906       0.50023141       0.79425021 </v>
   <v>       0.73739485       0.29449447       0.98232513 </v>
   <v>       0.50055690       0.29754397       0.26282485 </v>
   <v>       0.72711528       0.00022350       0.20921972 </v>
   <v>       0.79186146       0.22965055       0.48645033 </v>
   <v>       0.51417585       0.20918804       0.69577361 </v>
   <v>       0.82361085       0.00021998       0.77080093 </v>
   <v>       0.73737684       0.70594317       0.98232339 </v>
   <v>       0.50053965       0.70289673       0.26280890 </v>
   <v>       0.79526326       0.50022362       0.25941112 </v>
   <v>       0.79185120       0.77079603       0.48644584 </v>
   <v>       0.51416365       0.79126596       0.69576316 </v>
   <v>       0.73201868       0.50022623       0.70147039 </v>
  </varray>
 </structure>
</modeling>
