       N       E                     dE             d eps       ncg     rms          rms(c)
DAV:   1     0.441273664323E+04    0.44127E+04   -0.84570E+04 28584   0.176E+03
DAV:   2     0.842727226212E+03   -0.35700E+04   -0.32214E+04 26672   0.527E+02
DAV:   3    -0.193041301696E+03   -0.10358E+04   -0.94801E+03 28472   0.258E+02
DAV:   4    -0.338754050607E+03   -0.14571E+03   -0.14350E+03 38120   0.105E+02
DAV:   5    -0.344522877221E+03   -0.57688E+01   -0.57238E+01 41288   0.253E+01    0.113E+02
DAV:   6    -0.280125217174E+03    0.64398E+02   -0.42126E+02 40320   0.890E+01    0.107E+02
DAV:   7    -0.306618648811E+03   -0.26493E+02   -0.93500E+01 34704   0.322E+01    0.663E+01
DAV:   8    -0.310335137121E+03   -0.37165E+01   -0.14792E+01 35576   0.130E+01    0.334E+01
DAV:   9    -0.312173573596E+03   -0.18384E+01   -0.11755E+01 34000   0.125E+01    0.140E+01
DAV:  10    -0.311429271062E+03    0.74430E+00   -0.59413E+00 34800   0.970E+00    0.586E+00
DAV:  11    -0.311193798359E+03    0.23547E+00   -0.90669E-01 35440   0.382E+00    0.362E+00
DAV:  12    -0.311176212754E+03    0.17586E-01   -0.22518E-01 35224   0.183E+00    0.259E+00
DAV:  13    -0.311176388125E+03   -0.17537E-03   -0.60015E-02 34712   0.995E-01    0.189E+00
DAV:  14    -0.311186696619E+03   -0.10308E-01   -0.49337E-02 33600   0.840E-01    0.135E+00
DAV:  15    -0.311183746131E+03    0.29505E-02   -0.40499E-02 33160   0.734E-01    0.836E-01
DAV:  16    -0.311184395710E+03   -0.64958E-03   -0.10349E-02 32472   0.361E-01    0.387E-01
DAV:  17    -0.311184515748E+03   -0.12004E-03   -0.20076E-03 34456   0.182E-01    0.228E-01
DAV:  18    -0.311184711338E+03   -0.19559E-03   -0.72227E-04 33056   0.111E-01    0.133E-01
DAV:  19    -0.311184642186E+03    0.69153E-04   -0.31076E-04 30608   0.773E-02    0.633E-02
DAV:  20    -0.311184662958E+03   -0.20773E-04   -0.12647E-04 32488   0.440E-02    0.277E-02
DAV:  21    -0.311184682735E+03   -0.19777E-04   -0.25066E-05 25328   0.232E-02    0.231E-02
DAV:  22    -0.311184679973E+03    0.27616E-05   -0.70205E-06 18696   0.125E-02
   1 F= -.31118468E+03 E0= -.31118468E+03  d E =0.000000E+00  mag=     0.9388
