       N       E                     dE             d eps       ncg     rms          rms(c)
DAV:   1    -0.299904197146E+03   -0.29990E+03   -0.12750E+03 28120   0.122E+02    0.339E+01
DAV:   2    -0.328411048954E+03   -0.28507E+02   -0.28858E+02 39312   0.592E+01    0.560E+01
DAV:   3    -0.331576060481E+03   -0.31650E+01   -0.21044E+01 46488   0.155E+01    0.719E+01
DAV:   4    -0.330922799028E+03    0.65326E+00   -0.48033E+00 38448   0.975E+00    0.140E+01
DAV:   5    -0.330115299767E+03    0.80750E+00   -0.33534E+00 36896   0.683E+00    0.890E+00
DAV:   6    -0.330198425575E+03   -0.83126E-01   -0.85526E-01 42336   0.337E+00    0.877E+00
DAV:   7    -0.330168443266E+03    0.29982E-01   -0.15994E-01 42952   0.187E+00    0.556E+00
DAV:   8    -0.330130163062E+03    0.38280E-01   -0.11315E-01 40648   0.127E+00    0.373E+00
DAV:   9    -0.330129768079E+03    0.39498E-03   -0.25258E-02 41792   0.700E-01    0.271E+00
DAV:  10    -0.330128348725E+03    0.14194E-02   -0.44179E-03 45792   0.292E-01    0.258E+00
DAV:  11    -0.330126972908E+03    0.13758E-02   -0.11170E-03 44936   0.136E-01    0.235E+00
DAV:  12    -0.330124737578E+03    0.22353E-02   -0.18990E-03 38912   0.166E-01    0.181E+00
DAV:  13    -0.330123704537E+03    0.10330E-02   -0.12413E-03 39976   0.118E-01    0.140E+00
DAV:  14    -0.330123537788E+03    0.16675E-03   -0.21373E-04 41696   0.588E-02    0.121E+00
DAV:  15    -0.330122955600E+03    0.58219E-03   -0.49894E-04 31208   0.736E-02    0.832E-01
DAV:  16    -0.330122633385E+03    0.32221E-03   -0.49266E-04 38536   0.683E-02    0.621E-01
DAV:  17    -0.330122556869E+03    0.76516E-04   -0.90009E-05 34472   0.331E-02    0.521E-01
DAV:  18    -0.330122388741E+03    0.16813E-03   -0.24469E-04 36432   0.539E-02    0.302E-01
DAV:  19    -0.330122336666E+03    0.52075E-04   -0.15894E-04 36360   0.430E-02    0.170E-01
DAV:  20    -0.330122317968E+03    0.18697E-04   -0.86483E-05 30408   0.324E-02    0.496E-02
DAV:  21    -0.330122319040E+03   -0.10715E-05   -0.12451E-05 18584   0.248E-02
   1 F= -.33012232E+03 E0= -.33012232E+03  d E =-.330122E+03  mag=     0.0000
       N       E                     dE             d eps       ncg     rms          rms(c)
DAV:   1    -0.330122132332E+03    0.18564E-03   -0.52887E-03 25832   0.366E-01    0.479E-02
DAV:   2    -0.330122292805E+03   -0.16047E-03   -0.16793E-03 37824   0.140E-01    0.372E-02
DAV:   3    -0.330122293139E+03   -0.33406E-06   -0.34369E-05 25744   0.275E-02    0.243E-02
DAV:   4    -0.330122291761E+03    0.13781E-05   -0.73048E-06 16480   0.169E-02
   2 F= -.33012229E+03 E0= -.33012229E+03  d E =0.272794E-04  mag=    -0.0000
       N       E                     dE             d eps       ncg     rms          rms(c)
DAV:   1    -0.330121857708E+03    0.43543E-03   -0.12888E-02 24848   0.512E-01    0.661E-02
DAV:   2    -0.330122127908E+03   -0.27020E-03   -0.27856E-03 38016   0.196E-01    0.443E-02
DAV:   3    -0.330122128285E+03   -0.37738E-06   -0.57990E-05 28184   0.352E-02    0.299E-02
DAV:   4    -0.330122125719E+03    0.25665E-05   -0.95136E-06 17032   0.198E-02
   3 F= -.33012213E+03 E0= -.33012213E+03  d E =0.166042E-03  mag=     0.0000
       N       E                     dE             d eps       ncg     rms          rms(c)
DAV:   1    -0.330121657902E+03    0.47038E-03   -0.13310E-02 24720   0.479E-01    0.628E-02
DAV:   2    -0.330121869206E+03   -0.21130E-03   -0.21677E-03 38664   0.181E-01    0.402E-02
DAV:   3    -0.330121870153E+03   -0.94709E-06   -0.51853E-05 28056   0.328E-02    0.262E-02
DAV:   4    -0.330121868153E+03    0.19997E-05   -0.87146E-06 16024   0.185E-02
   4 F= -.33012187E+03 E0= -.33012187E+03  d E =0.257565E-03  mag=     0.0000
       N       E                     dE             d eps       ncg     rms          rms(c)
DAV:   1    -0.330121360062E+03    0.51009E-03   -0.14061E-02 24608   0.454E-01    0.594E-02
DAV:   2    -0.330121533317E+03   -0.17325E-03   -0.17788E-03 39000   0.174E-01    0.354E-02
DAV:   3    -0.330121534620E+03   -0.13030E-05   -0.46904E-05 27912   0.310E-02    0.231E-02
DAV:   4    -0.330121533051E+03    0.15691E-05   -0.80686E-06 14792   0.177E-02
   5 F= -.33012153E+03 E0= -.33012153E+03  d E =0.335102E-03  mag=     0.0000
       N       E                     dE             d eps       ncg     rms          rms(c)
DAV:   1    -0.330120887950E+03    0.64667E-03   -0.19167E-02 24560   0.490E-01    0.641E-02
DAV:   2    -0.330121075590E+03   -0.18764E-03   -0.19302E-03 39312   0.188E-01    0.354E-02
DAV:   3    -0.330121077637E+03   -0.20465E-05   -0.55961E-05 31328   0.319E-02    0.239E-02
DAV:   4    -0.330121076061E+03    0.15762E-05   -0.68316E-06 15016   0.167E-02
   6 F= -.33012108E+03 E0= -.33012108E+03  d E =0.456990E-03  mag=    -0.0000
       N       E                     dE             d eps       ncg     rms          rms(c)
DAV:   1    -0.330120617445E+03    0.46019E-03   -0.10041E-02 24560   0.325E-01    0.414E-02
DAV:   2    -0.330120698868E+03   -0.81424E-04   -0.84114E-04 40064   0.124E-01    0.226E-02
DAV:   3    -0.330120699497E+03   -0.62886E-06   -0.18528E-05 20360   0.214E-02    0.148E-02
DAV:   4    -0.330120699052E+03    0.44479E-06   -0.62033E-06 13736   0.146E-02
   7 F= -.33012070E+03 E0= -.33012070E+03  d E =0.377008E-03  mag=     0.0000
       N       E                     dE             d eps       ncg     rms          rms(c)
DAV:   1    -0.330120301267E+03    0.39823E-03   -0.72401E-03 24552   0.257E-01    0.317E-02
DAV:   2    -0.330120352313E+03   -0.51046E-04   -0.52431E-04 38232   0.967E-02    0.166E-02
DAV:   3    -0.330120352947E+03   -0.63418E-06   -0.12934E-05 16704   0.177E-02    0.108E-02
DAV:   4    -0.330120352824E+03    0.12308E-06   -0.41607E-06 13016   0.121E-02
   8 F= -.33012035E+03 E0= -.33012035E+03  d E =0.346228E-03  mag=    -0.0000
       N       E                     dE             d eps       ncg     rms          rms(c)
DAV:   1    -0.330119924613E+03    0.42833E-03   -0.78610E-03 24528   0.261E-01    0.298E-02
DAV:   2    -0.330119975734E+03   -0.51120E-04   -0.52273E-04 37168   0.950E-02    0.155E-02
DAV:   3    -0.330119976516E+03   -0.78288E-06   -0.13261E-05 17360   0.178E-02    0.991E-03
DAV:   4    -0.330119976457E+03    0.59266E-07   -0.38170E-06 12944   0.120E-02
   9 F= -.33011998E+03 E0= -.33011998E+03  d E =0.376367E-03  mag=    -0.0000
       N       E                     dE             d eps       ncg     rms          rms(c)
DAV:   1    -0.330119359045E+03    0.61747E-03   -0.14967E-02 24488   0.352E-01    0.394E-02
DAV:   2    -0.330119446793E+03   -0.87748E-04   -0.89499E-04 36632   0.125E-01    0.196E-02
DAV:   3    -0.330119448360E+03   -0.15667E-05   -0.24337E-05 20848   0.226E-02    0.124E-02
DAV:   4    -0.330119448224E+03    0.13624E-06   -0.55404E-06 12864   0.146E-02
  10 F= -.33011945E+03 E0= -.33011945E+03  d E =0.528234E-03  mag=    -0.0000
       N       E                     dE             d eps       ncg     rms          rms(c)
DAV:   1    -0.330118608616E+03    0.83974E-03   -0.25237E-02 24456   0.452E-01    0.503E-02
DAV:   2    -0.330118750477E+03   -0.14186E-03   -0.14455E-03 36184   0.159E-01    0.243E-02
DAV:   3    -0.330118754123E+03   -0.36458E-05   -0.49599E-05 28320   0.283E-02    0.154E-02
DAV:   4    -0.330118753872E+03    0.25134E-06   -0.65659E-06 13136   0.159E-02
  11 F= -.33011875E+03 E0= -.33011875E+03  d E =0.694352E-03  mag=     0.0000
       N       E                     dE             d eps       ncg     rms          rms(c)
DAV:   1    -0.330117735136E+03    0.10190E-02   -0.35537E-02 24432   0.531E-01    0.577E-02
DAV:   2    -0.330117922191E+03   -0.18706E-03   -0.19086E-03 35936   0.183E-01    0.279E-02
DAV:   3    -0.330117927862E+03   -0.56712E-05   -0.73396E-05 33672   0.322E-02    0.179E-02
DAV:   4    -0.330117927488E+03    0.37431E-06   -0.72621E-06 13648   0.164E-02
  12 F= -.33011793E+03 E0= -.33011793E+03  d E =0.826384E-03  mag=     0.0000
       N       E                     dE             d eps       ncg     rms          rms(c)
DAV:   1    -0.330116857671E+03    0.10702E-02   -0.39677E-02 24360   0.558E-01    0.587E-02
DAV:   2    -0.330117050304E+03   -0.19263E-03   -0.19700E-03 35808   0.184E-01    0.290E-02
DAV:   3    -0.330117056146E+03   -0.58411E-05   -0.76732E-05 33944   0.330E-02    0.186E-02
DAV:   4    -0.330117055675E+03    0.47097E-06   -0.76520E-06 13584   0.169E-02
  13 F= -.33011706E+03 E0= -.33011706E+03  d E =0.871813E-03  mag=     0.0000
       N       E                     dE             d eps       ncg     rms          rms(c)
DAV:   1    -0.330116103172E+03    0.95297E-03   -0.32481E-02 24352   0.505E-01    0.520E-02
DAV:   2    -0.330116265769E+03   -0.16260E-03   -0.16642E-03 35880   0.170E-01    0.260E-02
DAV:   3    -0.330116270397E+03   -0.46280E-05   -0.60086E-05 31232   0.300E-02    0.163E-02
DAV:   4    -0.330116270094E+03    0.30317E-06   -0.71217E-06 13264   0.165E-02
  14 F= -.33011627E+03 E0= -.33011627E+03  d E =0.785581E-03  mag=     0.0000
       N       E                     dE             d eps       ncg     rms          rms(c)
DAV:   1    -0.330115571983E+03    0.69841E-03   -0.18642E-02 24344   0.387E-01    0.389E-02
DAV:   2    -0.330115677826E+03   -0.10584E-03   -0.10827E-03 36248   0.137E-01    0.200E-02
DAV:   3    -0.330115679966E+03   -0.21396E-05   -0.28473E-05 20728   0.239E-02    0.128E-02
DAV:   4    -0.330115679931E+03    0.35063E-07   -0.67820E-06 12880   0.156E-02
  15 F= -.33011568E+03 E0= -.33011568E+03  d E =0.590163E-03  mag=    -0.0000
       N       E                     dE             d eps       ncg     rms          rms(c)
DAV:   1    -0.330114574162E+03    0.11058E-02   -0.41215E-02 24240   0.580E-01    0.595E-02
DAV:   2    -0.330114803382E+03   -0.22922E-03   -0.23427E-03 36496   0.207E-01    0.288E-02
DAV:   3    -0.330114811117E+03   -0.77349E-05   -0.96144E-05 35760   0.350E-02    0.185E-02
DAV:   4    -0.330114810545E+03    0.57178E-06   -0.76324E-06 13760   0.162E-02
  16 F= -.33011481E+03 E0= -.33011481E+03  d E =0.869386E-03  mag=     0.0000
       N       E                     dE             d eps       ncg     rms          rms(c)
DAV:   1    -0.330113974365E+03    0.83675E-03   -0.26415E-02 24240   0.469E-01    0.454E-02
DAV:   2    -0.330114119916E+03   -0.14555E-03   -0.14934E-03 36376   0.162E-01    0.244E-02
DAV:   3    -0.330114123850E+03   -0.39337E-05   -0.51782E-05 28040   0.285E-02    0.152E-02
DAV:   4    -0.330114123611E+03    0.23916E-06   -0.71897E-06 13120   0.165E-02
  17 F= -.33011412E+03 E0= -.33011412E+03  d E =0.686934E-03  mag=    -0.0000
       N       E                     dE             d eps       ncg     rms          rms(c)
DAV:   1    -0.330113227809E+03    0.89604E-03   -0.28955E-02 24192   0.497E-01    0.499E-02
DAV:   2    -0.330113406769E+03   -0.17896E-03   -0.18308E-03 36456   0.182E-01    0.256E-02
DAV:   3    -0.330113412519E+03   -0.57509E-05   -0.70797E-05 33456   0.312E-02    0.159E-02
DAV:   4    -0.330113412215E+03    0.30398E-06   -0.67327E-06 13328   0.155E-02
  18 F= -.33011341E+03 E0= -.33011341E+03  d E =0.711395E-03  mag=    -0.0000
       N       E                     dE             d eps       ncg     rms          rms(c)
DAV:   1    -0.330112269700E+03    0.11428E-02   -0.44645E-02 24168   0.620E-01    0.617E-02
DAV:   2    -0.330112532306E+03   -0.26261E-03   -0.26905E-03 36368   0.222E-01    0.320E-02
DAV:   3    -0.330112540386E+03   -0.80797E-05   -0.10288E-04 36448   0.374E-02    0.204E-02
DAV:   4    -0.330112539647E+03    0.73833E-06   -0.84921E-06 13808   0.173E-02
  19 F= -.33011254E+03 E0= -.33011254E+03  d E =0.872568E-03  mag=    -0.0000
       N       E                     dE             d eps       ncg     rms          rms(c)
DAV:   1    -0.330111166211E+03    0.13742E-02   -0.61982E-02 24152   0.730E-01    0.729E-02
DAV:   2    -0.330111513567E+03   -0.34736E-03   -0.35636E-03 36408   0.253E-01    0.384E-02
DAV:   3    -0.330111524697E+03   -0.11130E-04   -0.14441E-04 39256   0.432E-02    0.251E-02
DAV:   4    -0.330111523215E+03    0.14812E-05   -0.10333E-05 14592   0.182E-02
  20 F= -.33011152E+03 E0= -.33011152E+03  d E =0.101643E-02  mag=    -0.0000
       N       E                     dE             d eps       ncg     rms          rms(c)
DAV:   1    -0.330110955381E+03    0.56932E-03   -0.14602E-02 24192   0.357E-01    0.330E-02
DAV:   2    -0.330111041619E+03   -0.86238E-04   -0.88813E-04 37432   0.123E-01    0.213E-02
DAV:   3    -0.330111043075E+03   -0.14558E-05   -0.23092E-05 20816   0.218E-02    0.141E-02
DAV:   4    -0.330111042846E+03    0.22900E-06   -0.60808E-06 12800   0.150E-02
  21 F= -.33011104E+03 E0= -.33011104E+03  d E =0.480370E-03  mag=     0.0000
       N       E                     dE             d eps       ncg     rms          rms(c)
DAV:   1    -0.330111457142E+03   -0.41407E-03   -0.15783E-02 24192   0.369E-01    0.402E-02
DAV:   2    -0.330111555180E+03   -0.98038E-04   -0.10034E-03 36248   0.139E-01    0.181E-02
DAV:   3    -0.330111556223E+03   -0.10430E-05   -0.19486E-05 17488   0.201E-02    0.124E-02
DAV:   4    -0.330111555908E+03    0.31503E-06   -0.40752E-06 12592   0.125E-02
  22 F= -.33011156E+03 E0= -.33011156E+03  d E =-.513062E-03  mag=    -0.0000
       N       E                     dE             d eps       ncg     rms          rms(c)
DAV:   1    -0.330111548942E+03    0.72809E-05   -0.58846E-06 13476   0.113E-02    0.181E-03
DAV:   2    -0.330111549119E+03   -0.17711E-06   -0.18719E-06 12476   0.101E-02    0.101E-03
DAV:   3    -0.330111549228E+03   -0.10864E-06   -0.10466E-06 12476   0.624E-03    0.567E-04
DAV:   4    -0.330111549298E+03   -0.70067E-07   -0.65900E-07 12476   0.611E-03
  23 F= -.33011155E+03 E0= -.33011155E+03  d E =0.661008E-05  mag=    -0.0000
