<?xml version="1.0" encoding="ISO-8859-1"?>
<modeling>
 <generator>
  <i name="program" type="string">vasp </i>
  <i name="version" type="string">5.4.4.18Apr17-6-g9f103f2a35  </i>
  <i name="subversion" type="string">(build Jun 07 2018 10:31:45) complex            parallel </i>
  <i name="platform" type="string">LinuxIFC </i>
  <i name="date" type="string">2022 05 26 </i>
  <i name="time" type="string">09:43:53 </i>
 </generator>
 <incar>
  <i type="string" name="PREC">accurate</i>
  <i type="int" name="ISPIN">     2</i>
  <i type="int" name="NELM">  2000</i>
  <i type="int" name="NELMIN">     4</i>
  <i type="int" name="IBRION">     8</i>
  <i name="EDIFF">      0.00000010</i>
  <i type="int" name="ISYM">    -1</i>
  <i name="ENCUT">    500.00000000</i>
  <i type="int" name="ISMEAR">    -5</i>
  <i name="SIGMA">      0.05000000</i>
  <v type="int" name="KPOINT_BSE">    -1     0     0     0</v>
  <i type="int" name="NELM">  2000</i>
 </incar>
 <structure name="primitive_cell" >
  <crystal>
   <varray name="basis" >
    <v>      10.94816017       0.00000000       0.00000000 </v>
    <v>      -2.73704067       4.74069205       0.00000000 </v>
    <v>       0.00000000       0.00000000      13.40900040 </v>
   </varray>
   <i name="volume">    695.95200650 </i>
   <varray name="rec_basis" >
    <v>       0.09133955       0.05273493       0.00000000 </v>
    <v>       0.00000000       0.21093967       0.00000000 </v>
    <v>       0.00000000       0.00000000       0.07457677 </v>
   </varray>
  </crystal>
  <varray name="positions" >
   <v>       0.33536644       0.33950243      -0.40741257 </v>
   <v>       0.11605056       0.34683214      -0.42170881 </v>
   <v>      -0.44251247      -0.21862355      -0.41773951 </v>
   <v>       0.32756898      -0.11179765      -0.42024322 </v>
   <v>       0.49648744       0.43201026      -0.25366897 </v>
   <v>       0.22310853       0.00206650      -0.24951263 </v>
   <v>       0.27923632      -0.43591030      -0.24812959 </v>
   <v>       0.38658649      -0.34901961       0.42667098 </v>
   <v>       0.43394635       0.22000858       0.42302712 </v>
   <v>       0.15775343       0.10820308       0.41402215 </v>
   <v>      -0.38653371       0.35207210      -0.42397283 </v>
   <v>       0.05768841      -0.22946979      -0.42470210 </v>
   <v>       0.34077438       0.34372822      -0.16220171 </v>
   <v>       0.16870206      -0.32347243      -0.32355801 </v>
   <v>      -0.33146033      -0.32633272      -0.32298557 </v>
   <v>       0.49977864       0.00222190      -0.49743561 </v>
   <v>       0.00153214       0.00853945      -0.49454222 </v>
   <v>       0.34404783       0.35040602       0.32499026 </v>
   <v>      -0.33674367      -0.33275222       0.41626969 </v>
   <v>       0.16941354      -0.32541888       0.41574951 </v>
   <v>      -0.48950938       0.01420210      -0.19685795 </v>
   <v>      -0.28557832      -0.00669276      -0.24376274 </v>
   <v>      -0.00420198       0.45203708      -0.25097955 </v>
   <v>       0.45195640      -0.32135369      -0.08846912 </v>
   <v>       0.39260634       0.10745169      -0.08916042 </v>
   <v>      -0.32810325       0.11872614       0.42543473 </v>
   <v>      -0.05706764       0.22918692       0.42053752 </v>
   <v>      -0.17372956      -0.11034935      -0.42038207 </v>
   <v>       0.17176052       0.22799523      -0.07782236 </v>
   <v>       0.21823568       0.45855269       0.25859553 </v>
   <v>      -0.22821163      -0.45524476      -0.24944154 </v>
   <v>       0.26148907      -0.00004603       0.25280819 </v>
   <v>      -0.49909088      -0.44268652       0.25134825 </v>
   <v>      -0.11588307      -0.33345458       0.41893883 </v>
   <v>       0.17580061      -0.31558331      -0.08317005 </v>
   <v>      -0.16776149       0.33884023      -0.41097491 </v>
   <v>      -0.32774755      -0.32039442      -0.07819208 </v>
   <v>       0.00650011       0.00757247       0.24484552 </v>
   <v>      -0.33701679       0.22802727      -0.08285926 </v>
   <v>      -0.27911942       0.45995503       0.25792699 </v>
   <v>      -0.05692641      -0.34394434      -0.07551691 </v>
   <v>      -0.00082440      -0.44576383       0.25624701 </v>
   <v>      -0.11043825       0.11610223      -0.07835815 </v>
   <v>      -0.22142494      -0.01280358       0.25812984 </v>
   <v>       0.00799601       0.02497823      -0.00143253 </v>
   <v>      -0.15987312       0.34725155      -0.16458189 </v>
   <v>      -0.17508833       0.33160804       0.32508121 </v>
   <v>      -0.48743494       0.02661823       0.01319495 </v>
   <v>       0.18482087      -0.30599246       0.16323698 </v>
   <v>      -0.32846284      -0.33148637       0.16558805 </v>
   <v>       0.40283326       0.49058549       0.10486800 </v>
   <v>       0.32749288      -0.24754056       0.07423290 </v>
   <v>      -0.45326851       0.35620736       0.07690667 </v>
   <v>       0.10360591      -0.12990036       0.08503164 </v>
   <v>      -0.38660284      -0.11321733       0.07981686 </v>
   <v>       0.04890953       0.32770205       0.08859757 </v>
   <v>      -0.09839173       0.46390419       0.06716551 </v>
   <v>      -0.16765790      -0.24159285       0.08703134 </v>
  </varray>
 </structure>
 <varray name="primitive_index" >
  <v type="int" >        1 </v>
  <v type="int" >       35 </v>
  <v type="int" >       44 </v>
  <v type="int" >       39 </v>
  <v type="int" >       30 </v>
  <v type="int" >       25 </v>
  <v type="int" >       33 </v>
  <v type="int" >       49 </v>
  <v type="int" >       57 </v>
  <v type="int" >       53 </v>
  <v type="int" >       36 </v>
  <v type="int" >       43 </v>
  <v type="int" >       17 </v>
  <v type="int" >       19 </v>
  <v type="int" >       20 </v>
  <v type="int" >       14 </v>
  <v type="int" >       13 </v>
  <v type="int" >       15 </v>
  <v type="int" >        6 </v>
  <v type="int" >        5 </v>
  <v type="int" >        8 </v>
  <v type="int" >       26 </v>
  <v type="int" >       29 </v>
  <v type="int" >       47 </v>
  <v type="int" >       55 </v>
  <v type="int" >       54 </v>
  <v type="int" >       58 </v>
  <v type="int" >       40 </v>
  <v type="int" >       51 </v>
  <v type="int" >       31 </v>
  <v type="int" >       34 </v>
  <v type="int" >       23 </v>
  <v type="int" >       28 </v>
  <v type="int" >       50 </v>
  <v type="int" >        3 </v>
  <v type="int" >        2 </v>
  <v type="int" >        4 </v>
  <v type="int" >        7 </v>
  <v type="int" >       52 </v>
  <v type="int" >       32 </v>
  <v type="int" >       48 </v>
  <v type="int" >       27 </v>
  <v type="int" >       56 </v>
  <v type="int" >       24 </v>
  <v type="int" >       11 </v>
  <v type="int" >       18 </v>
  <v type="int" >       16 </v>
  <v type="int" >       12 </v>
  <v type="int" >       21 </v>
  <v type="int" >       22 </v>
  <v type="int" >        9 </v>
  <v type="int" >       41 </v>
  <v type="int" >       38 </v>
  <v type="int" >       45 </v>
  <v type="int" >       46 </v>
  <v type="int" >       37 </v>
  <v type="int" >       10 </v>
  <v type="int" >       42 </v>
 </varray>
 <kpoints>
  <generation param="Gamma">
   <v type="int" name="divisions">       1        2        2 </v>
   <v name="usershift">      0.00000000       0.00000000       0.00000000 </v>
   <v name="genvec1">      1.00000000      -0.00000000       0.00000000 </v>
   <v name="genvec2">      0.00000000       0.50000000       0.00000000 </v>
   <v name="genvec3">      0.00000000       0.00000000       0.50000000 </v>
   <v name="shift">      0.00000000       0.00000000       0.00000000 </v>
  </generation>
  <varray name="kpointlist" >
   <v>       0.00000000       0.00000000       0.00000000 </v>
   <v>       0.00000000       0.50000000       0.00000000 </v>
   <v>       0.00000000       0.00000000       0.50000000 </v>
   <v>       0.00000000       0.50000000       0.50000000 </v>
  </varray>
  <varray name="weights" >
   <v>       0.25000000 </v>
   <v>       0.25000000 </v>
   <v>       0.25000000 </v>
   <v>       0.25000000 </v>
  </varray>
  <varray name="tetrahedronlist"  type="int" >
   <v type="int" >        2        1        2        2        4 </v>
   <v type="int" >        2        1        1        2        4 </v>
   <v type="int" >        2        1        1        3        4 </v>
   <v type="int" >        2        1        2        4        4 </v>
   <v type="int" >        2        1        3        4        4 </v>
   <v type="int" >        2        1        3        3        4 </v>
   <v type="int" >        2        1        1        2        3 </v>
   <v type="int" >        2        1        2        2        3 </v>
   <v type="int" >        2        2        2        3        4 </v>
   <v type="int" >        2        1        2        3        3 </v>
   <v type="int" >        2        2        3        3        4 </v>
   <v type="int" >        2        2        3        4        4 </v>
  </varray>
  <i name="volumeweight">      0.04166667 </i>
 </kpoints>
 <parameters>
  <separator name="general" >
   <i type="string" name="SYSTEM">unknown system</i>
   <i type="logical" name="LCOMPAT"> F  </i>
  </separator>
  <separator name="electronic" >
   <i type="string" name="PREC">accura</i>
   <i name="ENMAX">    500.00000000</i>
   <i name="ENAUG">    628.94500000</i>
   <i name="EDIFF">      0.00000010</i>
   <i type="int" name="IALGO">    38</i>
   <i type="int" name="IWAVPR">    11</i>
   <i type="int" name="NBANDS">   288</i>
   <i name="NELECT">    422.00000000</i>
   <i type="int" name="TURBO">     0</i>
   <i type="int" name="IRESTART">     0</i>
   <i type="int" name="NREBOOT">     0</i>
   <i type="int" name="NMIN">     0</i>
   <i name="EREF">      0.00000000</i>
   <separator name="electronic smearing" >
    <i type="int" name="ISMEAR">    -5</i>
    <i name="SIGMA">      0.05000000</i>
    <i name="KSPACING">      0.50000000</i>
    <i type="logical" name="KGAMMA"> T  </i>
   </separator>
   <separator name="electronic projectors" >
    <i type="logical" name="LREAL"> F  </i>
    <v name="ROPT">      0.00000000      0.00000000      0.00000000      0.00000000</v>
    <i type="int" name="LMAXPAW">  -100</i>
    <i type="int" name="LMAXMIX">     2</i>
    <i type="logical" name="NLSPLINE"> F  </i>
   </separator>
   <separator name="electronic startup" >
    <i type="int" name="ISTART">     0</i>
    <i type="int" name="ICHARG">     2</i>
    <i type="int" name="INIWAV">     1</i>
   </separator>
   <separator name="electronic spin" >
    <i type="int" name="ISPIN">     2</i>
    <i type="logical" name="LNONCOLLINEAR"> F  </i>
    <v name="MAGMOM">      1.00000000      1.00000000      1.00000000      1.00000000      1.00000000      1.00000000      1.00000000      1.00000000      1.00000000      1.00000000      1.00000000      1.00000000      1.00000000      1.00000000      1.00000000      1.00000000      1.00000000      1.00000000      1.00000000      1.00000000
      1.00000000      1.00000000      1.00000000      1.00000000      1.00000000      1.00000000      1.00000000      1.00000000      1.00000000      1.00000000      1.00000000      1.00000000      1.00000000      1.00000000      1.00000000      1.00000000      1.00000000      1.00000000      1.00000000      1.00000000
      1.00000000      1.00000000      1.00000000      1.00000000      1.00000000      1.00000000      1.00000000      1.00000000      1.00000000      1.00000000      1.00000000      1.00000000      1.00000000      1.00000000      1.00000000      1.00000000      1.00000000      1.00000000</v>
    <i name="NUPDOWN">     -1.00000000</i>
    <i type="logical" name="LSORBIT"> F  </i>
    <v name="SAXIS">      0.00000000      0.00000000      1.00000000</v>
    <i type="logical" name="LSPIRAL"> F  </i>
    <v name="QSPIRAL">      0.00000000      0.00000000      0.00000000</v>
    <i type="logical" name="LZEROZ"> F  </i>
   </separator>
   <separator name="electronic exchange-correlation" >
    <i type="logical" name="LASPH"> F  </i>
    <i type="logical" name="LMETAGGA"> F  </i>
   </separator>
   <separator name="electronic convergence" >
    <i type="int" name="NELM">  2000</i>
    <i type="int" name="NELMDL">     0</i>
    <i type="int" name="NELMIN">     4</i>
    <i name="ENINI">    500.00000000</i>
    <separator name="electronic convergence detail" >
     <i type="logical" name="LDIAG"> T  </i>
     <i type="logical" name="LSUBROT"> F  </i>
     <i name="WEIMIN">      0.00100000</i>
     <i name="EBREAK">      0.00000000</i>
     <i name="DEPER">      0.30000000</i>
     <i type="int" name="NRMM">     4</i>
     <i name="TIME">      0.40000000</i>
    </separator>
   </separator>
   <separator name="electronic mixer" >
    <i name="AMIX">      0.40000000</i>
    <i name="BMIX">      1.00000000</i>
    <i name="AMIN">      0.10000000</i>
    <i name="AMIX_MAG">      1.60000000</i>
    <i name="BMIX_MAG">      1.00000000</i>
    <separator name="electronic mixer details" >
     <i type="int" name="IMIX">     4</i>
     <i type="logical" name="MIXFIRST"> F  </i>
     <i type="int" name="MAXMIX">   -45</i>
     <i name="WC">    100.00000000</i>
     <i type="int" name="INIMIX">     1</i>
     <i type="int" name="MIXPRE">     1</i>
     <i type="int" name="MREMOVE">     5</i>
    </separator>
   </separator>
   <separator name="electronic dipolcorrection" >
    <i type="logical" name="LDIPOL"> F  </i>
    <i type="logical" name="LMONO"> F  </i>
    <i type="int" name="IDIPOL">     0</i>
    <i name="EPSILON">      1.00000000</i>
    <v name="DIPOL">   -100.00000000   -100.00000000   -100.00000000</v>
    <i name="EFIELD">      0.00000000</i>
   </separator>
  </separator>
  <separator name="grids" >
   <i type="int" name="NGX">    80</i>
   <i type="int" name="NGY">    40</i>
   <i type="int" name="NGZ">    98</i>
   <i type="int" name="NGXF">   160</i>
   <i type="int" name="NGYF">    80</i>
   <i type="int" name="NGZF">   196</i>
   <i type="logical" name="ADDGRID"> F  </i>
  </separator>
  <separator name="ionic" >
   <i type="int" name="NSW">     1</i>
   <i type="int" name="IBRION">     8</i>
   <i type="int" name="MDALGO">     0</i>
   <i type="int" name="ISIF">     2</i>
   <i name="PSTRESS">      0.00000000</i>
   <i name="EDIFFG">      0.00000100</i>
   <i type="int" name="NFREE">     0</i>
   <i name="POTIM">      0.50000000</i>
   <i name="SMASS">     -3.00000000</i>
   <i name="SCALEE">      1.00000000</i>
  </separator>
  <separator name="ionic md" >
   <i name="TEBEG">      0.00010000</i>
   <i name="TEEND">      0.00010000</i>
   <i type="int" name="NBLOCK">     1</i>
   <i type="int" name="KBLOCK">     1</i>
   <i type="int" name="NPACO">   256</i>
   <i name="APACO">     16.00000000</i>
  </separator>
  <separator name="symmetry" >
   <i type="int" name="ISYM">    -1</i>
   <i name="SYMPREC">      0.00001000</i>
  </separator>
  <separator name="dos" >
   <i type="int" name="LORBIT">     0</i>
   <v name="RWIGS">     -1.00000000     -1.00000000     -1.00000000     -1.00000000</v>
   <i type="int" name="NEDOS">   301</i>
   <i name="EMIN">     10.00000000</i>
   <i name="EMAX">    -10.00000000</i>
   <i name="EFERMI">      0.00000000</i>
  </separator>
  <separator name="writing" >
   <i type="int" name="NWRITE">     2</i>
   <i type="logical" name="LWAVE"> T  </i>
   <i type="logical" name="LDOWNSAMPLE"> F  </i>
   <i type="logical" name="LCHARG"> T  </i>
   <i type="logical" name="LPARD"> F  </i>
   <i type="logical" name="LVTOT"> F  </i>
   <i type="logical" name="LVHAR"> F  </i>
   <i type="logical" name="LELF"> F  </i>
   <i type="logical" name="LOPTICS"> F  </i>
   <v name="STM">      0.00000000      0.00000000      0.00000000      0.00000000      0.00000000      0.00000000      0.00000000</v>
  </separator>
  <separator name="performance" >
   <i type="int" name="NPAR">    48</i>
   <i type="int" name="NSIM">     4</i>
   <i type="int" name="NBLK">    -1</i>
   <i type="logical" name="LPLANE"> T  </i>
   <i type="logical" name="LSCALAPACK"> T  </i>
   <i type="logical" name="LSCAAWARE"> F  </i>
   <i type="logical" name="LSCALU"> F  </i>
   <i type="logical" name="LASYNC"> F  </i>
   <i type="logical" name="LORBITALREAL"> F  </i>
  </separator>
  <separator name="miscellaneous" >
   <i type="int" name="IDIOT">     3</i>
   <i type="int" name="ISPECIAL">     0</i>
   <i type="logical" name="LMUSIC"> F  </i>
   <v name="POMASS">    138.90000000      7.01000000     47.88000000     16.00000000</v>
   <v name="DARWINR">      0.00000000      0.00000000      0.00000000      0.00000000</v>
   <v name="DARWINV">      1.00000000      1.00000000      1.00000000      1.00000000</v>
   <i type="logical" name="LCORR"> T  </i>
  </separator>
  <i type="logical" name="GGA_COMPAT"> T  </i>
  <i type="logical" name="LBERRY"> F  </i>
  <i type="int" name="ICORELEVEL">     0</i>
  <i type="logical" name="LDAU"> F  </i>
  <i type="int" name="I_CONSTRAINED_M">     0</i>
  <separator name="electronic exchange-correlation" >
   <i type="string" name="GGA">--</i>
   <i type="int" name="VOSKOWN">     0</i>
   <i type="logical" name="LHFCALC"> F  </i>
   <i type="string" name="PRECFOCK"></i>
   <i type="logical" name="LSYMGRAD"> F  </i>
   <i type="logical" name="LHFONE"> F  </i>
   <i type="logical" name="LRHFCALC"> F  </i>
   <i type="logical" name="LTHOMAS"> F  </i>
   <i type="logical" name="LMODELHF"> F  </i>
   <i name="ENCUT4O">     -1.00000000</i>
   <i type="int" name="EXXOEP">     0</i>
   <i type="int" name="FOURORBIT">     0</i>
   <i name="AEXX">      0.00000000</i>
   <i name="HFALPHA">      0.00000000</i>
   <i name="MCALPHA">      0.00000000</i>
   <i name="ALDAX">      1.00000000</i>
   <i name="AGGAX">      1.00000000</i>
   <i name="ALDAC">      1.00000000</i>
   <i name="AGGAC">      1.00000000</i>
   <i type="int" name="NKREDX">     1</i>
   <i type="int" name="NKREDY">     1</i>
   <i type="int" name="NKREDZ">     1</i>
   <i type="logical" name="SHIFTRED"> F  </i>
   <i type="logical" name="ODDONLY"> F  </i>
   <i type="logical" name="EVENONLY"> F  </i>
   <i type="int" name="LMAXFOCK">     0</i>
   <i type="int" name="NMAXFOCKAE">     0</i>
   <i type="logical" name="LFOCKAEDFT"> F  </i>
   <i name="HFSCREEN">      0.00000000</i>
   <i name="HFSCREENC">      0.00000000</i>
   <i type="int" name="NBANDSGWLOW">     0</i>
  </separator>
  <separator name="vdW DFT" >
   <i type="logical" name="LUSE_VDW"> F  </i>
   <i name="Zab_VDW">     -0.84910000</i>
   <i name="PARAM1">      0.12340000</i>
   <i name="PARAM2">      1.00000000</i>
   <i name="PARAM3">      0.00000000</i>
  </separator>
  <separator name="model GW" >
   <i type="int" name="MODEL_GW">     0</i>
   <i name="MODEL_EPS0">      7.19950352</i>
   <i name="MODEL_ALPHA">      1.00000000</i>
  </separator>
  <separator name="linear response parameters" >
   <i type="logical" name="LEPSILON"> F  </i>
   <i type="logical" name="LRPA"> F  </i>
   <i type="logical" name="LNABLA"> F  </i>
   <i type="logical" name="LVEL"> F  </i>
   <i type="int" name="KINTER">     0</i>
   <i name="CSHIFT">      0.10000000</i>
   <i name="OMEGAMAX">     -1.00000000</i>
   <i name="DEG_THRESHOLD">      0.00200000</i>
   <i name="RTIME">     -0.10000000</i>
   <i name="WPLASMAI">      0.00000000</i>
   <v name="DFIELD">      0.00000000      0.00000000      0.00000000</v>
   <v name="WPLASMA">      0.00000000      0.00000000      0.00000000      0.00000000      0.00000000      0.00000000      0.00000000      0.00000000      0.00000000</v>
  </separator>
  <separator name="orbital magnetization" >
   <i type="logical" name="NUCIND"> F  </i>
   <v name="MAGPOS">      0.00000000      0.00000000      0.00000000</v>
   <i type="logical" name="LNICSALL"> T  </i>
   <i type="logical" name="ORBITALMAG"> F  </i>
   <i type="logical" name="LMAGBLOCH"> F  </i>
   <i type="logical" name="LCHIMAG"> F  </i>
   <i type="logical" name="LGAUGE"> T  </i>
   <i type="int" name="MAGATOM">     0</i>
   <v name="MAGDIPOL">      0.00000000      0.00000000      0.00000000</v>
   <v name="AVECCONST">      0.00000000      0.00000000      0.00000000</v>
  </separator>
  <separator name="response functions" >
   <i type="logical" name="LADDER"> F  </i>
   <i type="logical" name="LRPAFORCE"> F  </i>
   <i type="logical" name="LFXC"> F  </i>
   <i type="logical" name="LHARTREE"> T  </i>
   <i type="int" name="IBSE">     0</i>
   <v type="int" name="KPOINT">    -1     0     0     0</v>
   <i type="logical" name="LTCTE"> F  </i>
   <i type="logical" name="LTETE"> F  </i>
   <i type="logical" name="LTRIPLET"> F  </i>
   <i type="logical" name="LFXCEPS"> F  </i>
   <i type="logical" name="LFXHEG"> F  </i>
   <i type="int" name="NATURALO">     2</i>
   <i type="logical" name="L2ORDER"> F  </i>
   <i type="logical" name="LMP2LT"> F  </i>
   <i type="logical" name="LUSEW"> F  </i>
   <i name="ENCUTGW">     -2.00000000</i>
   <i name="ENCUTGWSOFT">     -2.00000000</i>
   <i name="ENCUTLF">     -1.00000000</i>
   <i type="int" name="LMAXMP2">    -1</i>
   <i name="SCISSOR">      0.00000000</i>
   <i type="int" name="NOMEGA">     0</i>
   <i type="int" name="NOMEGAR">     0</i>
   <i type="int" name="NBANDSGW">    -1</i>
   <i type="int" name="NBANDSO">    -1</i>
   <i type="int" name="NBANDSV">    -1</i>
   <i type="int" name="NELM">  2000</i>
   <i type="int" name="NELMHF">     1</i>
   <i type="int" name="DIM">     3</i>
   <i type="int" name="ANTIRES">     0</i>
   <i name="OMEGAMAX">    -30.00000000</i>
   <i name="OMEGAMIN">    -30.00000000</i>
   <i name="OMEGATL">   -200.00000000</i>
   <i type="int" name="OMEGAGRID">   140</i>
   <i name="CSHIFT">     -0.10000000</i>
   <i type="logical" name="SELFENERGY"> F  </i>
   <i type="logical" name="LSPECTRAL"> F  </i>
   <i type="logical" name="LSPECTRALGW"> F  </i>
   <i type="logical" name="LSINGLES"> F  </i>
   <i type="logical" name="LFERMIGW"> F  </i>
   <i type="logical" name="ODDONLYGW"> F  </i>
   <i type="logical" name="EVENONLYGW"> F  </i>
   <i type="int" name="NKREDLFX">     1</i>
   <i type="int" name="NKREDLFY">     1</i>
   <i type="int" name="NKREDLFZ">     1</i>
   <i type="int" name="MAXMEM">  2800</i>
   <i type="int" name="TELESCOPE">     0</i>
   <i type="int" name="TAUPAR">     1</i>
   <i type="int" name="OMEGAPAR">    -1</i>
   <i name="LAMBDA">      1.00000000</i>
  </separator>
  <separator name="External order field" >
   <i name="OFIELD_KAPPA">      0.00000000</i>
   <v name="OFIELD_K">      0.00000000      0.00000000      0.00000000</v>
   <i name="OFIELD_Q6_NEAR">      0.00000000</i>
   <i name="OFIELD_Q6_FAR">      0.00000000</i>
   <i name="OFIELD_A">      0.00000000</i>
  </separator>
 </parameters>
 <atominfo>
  <atoms>      58 </atoms>
  <types>       4 </types>
  <array name="atoms" >
   <dimension dim="1">ion</dimension>
   <field type="string">element</field>
   <field type="int">atomtype</field>
   <set>
    <rc><c>La</c><c>   1</c></rc>
    <rc><c>La</c><c>   1</c></rc>
    <rc><c>La</c><c>   1</c></rc>
    <rc><c>La</c><c>   1</c></rc>
    <rc><c>La</c><c>   1</c></rc>
    <rc><c>La</c><c>   1</c></rc>
    <rc><c>La</c><c>   1</c></rc>
    <rc><c>Li</c><c>   2</c></rc>
    <rc><c>Li</c><c>   2</c></rc>
    <rc><c>Li</c><c>   2</c></rc>
    <rc><c>Ti</c><c>   3</c></rc>
    <rc><c>Ti</c><c>   3</c></rc>
    <rc><c>Ti</c><c>   3</c></rc>
    <rc><c>Ti</c><c>   3</c></rc>
    <rc><c>Ti</c><c>   3</c></rc>
    <rc><c>Ti</c><c>   3</c></rc>
    <rc><c>Ti</c><c>   3</c></rc>
    <rc><c>Ti</c><c>   3</c></rc>
    <rc><c>Ti</c><c>   3</c></rc>
    <rc><c>Ti</c><c>   3</c></rc>
    <rc><c>Ti</c><c>   3</c></rc>
    <rc><c>Ti</c><c>   3</c></rc>
    <rc><c>O </c><c>   4</c></rc>
    <rc><c>O </c><c>   4</c></rc>
    <rc><c>O </c><c>   4</c></rc>
    <rc><c>O </c><c>   4</c></rc>
    <rc><c>O </c><c>   4</c></rc>
    <rc><c>O </c><c>   4</c></rc>
    <rc><c>O </c><c>   4</c></rc>
    <rc><c>O </c><c>   4</c></rc>
    <rc><c>O </c><c>   4</c></rc>
    <rc><c>O </c><c>   4</c></rc>
    <rc><c>O </c><c>   4</c></rc>
    <rc><c>O </c><c>   4</c></rc>
    <rc><c>O </c><c>   4</c></rc>
    <rc><c>O </c><c>   4</c></rc>
    <rc><c>O </c><c>   4</c></rc>
    <rc><c>O </c><c>   4</c></rc>
    <rc><c>O </c><c>   4</c></rc>
    <rc><c>O </c><c>   4</c></rc>
    <rc><c>O </c><c>   4</c></rc>
    <rc><c>O </c><c>   4</c></rc>
    <rc><c>O </c><c>   4</c></rc>
    <rc><c>O </c><c>   4</c></rc>
    <rc><c>O </c><c>   4</c></rc>
    <rc><c>O </c><c>   4</c></rc>
    <rc><c>O </c><c>   4</c></rc>
    <rc><c>O </c><c>   4</c></rc>
    <rc><c>O </c><c>   4</c></rc>
    <rc><c>O </c><c>   4</c></rc>
    <rc><c>O </c><c>   4</c></rc>
    <rc><c>O </c><c>   4</c></rc>
    <rc><c>O </c><c>   4</c></rc>
    <rc><c>O </c><c>   4</c></rc>
    <rc><c>O </c><c>   4</c></rc>
    <rc><c>O </c><c>   4</c></rc>
    <rc><c>O </c><c>   4</c></rc>
    <rc><c>O </c><c>   4</c></rc>
   </set>
  </array>
  <array name="atomtypes" >
   <dimension dim="1">type</dimension>
   <field type="int">atomspertype</field>
   <field type="string">element</field>
   <field>mass</field>
   <field>valence</field>
   <field type="string">pseudopotential</field>
   <set>
    <rc><c>   7</c><c>La</c><c>    138.90000000</c><c>     11.00000000</c><c>  PAW_PBE La 06Sep2000                  </c></rc>
    <rc><c>   3</c><c>Li</c><c>      7.01000000</c><c>      3.00000000</c><c>  PAW_PBE Li_sv 10Sep2004               </c></rc>
    <rc><c>  12</c><c>Ti</c><c>     47.88000000</c><c>     10.00000000</c><c>  PAW_PBE Ti_pv 07Sep2000               </c></rc>
    <rc><c>  36</c><c>O </c><c>     16.00000000</c><c>      6.00000000</c><c>  PAW_PBE O_s 07Sep2000                 </c></rc>
   </set>
  </array>
 </atominfo>
 <structure name="initialpos" >
  <crystal>
   <varray name="basis" >
    <v>      10.94816017       0.00000000       0.00000000 </v>
    <v>      -2.73704067       4.74069205       0.00000000 </v>
    <v>       0.00000000       0.00000000      13.40900040 </v>
   </varray>
   <i name="volume">    695.95200650 </i>
   <varray name="rec_basis" >
    <v>       0.09133955       0.05273493       0.00000000 </v>
    <v>       0.00000000       0.21093967       0.00000000 </v>
    <v>       0.00000000       0.00000000       0.07457677 </v>
   </varray>
  </crystal>
  <varray name="positions" >
   <v>       0.33536644       0.33950243       0.59258743 </v>
   <v>       0.83223851       0.33884023       0.58902509 </v>
   <v>       0.17580061       0.68441669       0.91682995 </v>
   <v>       0.67225245       0.67960558       0.92180792 </v>
   <v>       0.16941354       0.67458112       0.41574951 </v>
   <v>       0.66325633       0.66724778       0.41626969 </v>
   <v>       0.00650011       0.00757247       0.24484552 </v>
   <v>       0.51049062       0.01420210       0.80314205 </v>
   <v>       0.40283326       0.49058549       0.10486800 </v>
   <v>       0.90160827       0.46390419       0.06716551 </v>
   <v>       0.00799601       0.02497823       0.99856747 </v>
   <v>       0.51256506       0.02661823       0.01319495 </v>
   <v>       0.00153214       0.00853945       0.50545778 </v>
   <v>       0.49977864       0.00222190       0.50256439 </v>
   <v>       0.34404783       0.35040602       0.32499026 </v>
   <v>       0.82491167       0.33160804       0.32508121 </v>
   <v>       0.34077438       0.34372822       0.83779829 </v>
   <v>       0.84012688       0.34725155       0.83541811 </v>
   <v>       0.16870206       0.67652757       0.67644199 </v>
   <v>       0.66853967       0.67366728       0.67701443 </v>
   <v>       0.18482087       0.69400754       0.16323698 </v>
   <v>       0.67153716       0.66851363       0.16558805 </v>
   <v>       0.26148907       0.99995397       0.25280819 </v>
   <v>       0.77857506       0.98719642       0.25812984 </v>
   <v>       0.22310853       0.00206650       0.75048737 </v>
   <v>       0.71442168       0.99330724       0.75623726 </v>
   <v>       0.99917560       0.55423617       0.25624701 </v>
   <v>       0.50090912       0.55731348       0.25134825 </v>
   <v>       0.99579802       0.45203708       0.74902045 </v>
   <v>       0.49648744       0.43201026       0.74633103 </v>
   <v>       0.21823568       0.45855269       0.25859553 </v>
   <v>       0.72088058       0.45995503       0.25792699 </v>
   <v>       0.27923632       0.56408970       0.75187041 </v>
   <v>       0.77178837       0.54475524       0.75055846 </v>
   <v>       0.11605056       0.34683214       0.57829119 </v>
   <v>       0.61346629       0.35207210       0.57602717 </v>
   <v>       0.04890953       0.32770205       0.08859757 </v>
   <v>       0.54673149       0.35620736       0.07690667 </v>
   <v>       0.32756898       0.88820235       0.57975678 </v>
   <v>       0.82627044       0.88965065       0.57961793 </v>
   <v>       0.32749288       0.75245944       0.07423290 </v>
   <v>       0.83234210       0.75840715       0.08703134 </v>
   <v>       0.05768841       0.77053021       0.57529790 </v>
   <v>       0.55748753       0.78137645       0.58226049 </v>
   <v>       0.10360591       0.87009964       0.08503164 </v>
   <v>       0.61339716       0.88678267       0.07981686 </v>
   <v>       0.45195640       0.67864631       0.91153088 </v>
   <v>       0.94307359       0.65605566       0.92448309 </v>
   <v>       0.38658649       0.65098039       0.42667098 </v>
   <v>       0.88411693       0.66654542       0.41893883 </v>
   <v>       0.17176052       0.22799523       0.92217764 </v>
   <v>       0.66298321       0.22802727       0.91714074 </v>
   <v>       0.15775343       0.10820308       0.41402215 </v>
   <v>       0.67189675       0.11872614       0.42543473 </v>
   <v>       0.39260634       0.10745169       0.91083958 </v>
   <v>       0.88956175       0.11610223       0.92164185 </v>
   <v>       0.43394635       0.22000858       0.42302712 </v>
   <v>       0.94293236       0.22918692       0.42053752 </v>
  </varray>
 </structure>
 <calculation>
  <scstep>
   <time name="dav">   14.93   14.94</time>
   <time name="total">   15.11   15.13</time>
   <energy>
    <i name="alphaZ">   1718.90537276 </i>
    <i name="ewald"> -26553.38446075 </i>
    <i name="hartreedc">  -8377.55169024 </i>
    <i name="XCdc">   1691.74038570 </i>
    <i name="pawpsdc">  26955.65571008 </i>
    <i name="pawaedc"> -27139.85169123 </i>
    <i name="eentropy">      0.00000000 </i>
    <i name="bandstr">   1881.59451736 </i>
    <i name="atom">  34746.70789969 </i>
    <i name="e_fr_energy">   4923.81604337 </i>
    <i name="e_wo_entrp">   4923.81604337 </i>
    <i name="e_0_energy">   4923.81604337 </i>
   </energy>
  </scstep>
  <scstep>
   <time name="dav">   13.01   13.04</time>
   <time name="total">   13.02   13.05</time>
   <energy>
    <i name="e_fr_energy">    354.37923446 </i>
    <i name="e_wo_entrp">    354.37923446 </i>
    <i name="e_0_energy">    354.37923446 </i>
   </energy>
  </scstep>
  <scstep>
   <time name="dav">   17.25   17.27</time>
   <time name="total">   17.26   17.27</time>
   <energy>
    <i name="e_fr_energy">   -549.24041556 </i>
    <i name="e_wo_entrp">   -549.24041556 </i>
    <i name="e_0_energy">   -549.24041556 </i>
   </energy>
  </scstep>
  <scstep>
   <time name="dav">   18.64   18.65</time>
   <time name="total">   18.64   18.65</time>
   <energy>
    <i name="e_fr_energy">   -595.13956626 </i>
    <i name="e_wo_entrp">   -595.13956626 </i>
    <i name="e_0_energy">   -595.13956626 </i>
   </energy>
  </scstep>
  <scstep>
   <time name="dav">   23.92   23.95</time>
   <time name="total">   24.34   24.37</time>
   <energy>
    <i name="e_fr_energy">   -598.93607440 </i>
    <i name="e_wo_entrp">   -598.93607440 </i>
    <i name="e_0_energy">   -598.93607440 </i>
   </energy>
  </scstep>
  <scstep>
   <time name="dav">   17.46   17.48</time>
   <time name="total">   18.02   18.04</time>
   <energy>
    <i name="e_fr_energy">   -445.19945347 </i>
    <i name="e_wo_entrp">   -445.19945347 </i>
    <i name="e_0_energy">   -445.19945347 </i>
   </energy>
  </scstep>
  <scstep>
   <time name="dav">   19.42   19.43</time>
   <time name="total">   19.97   19.99</time>
   <energy>
    <i name="e_fr_energy">   -460.82413889 </i>
    <i name="e_wo_entrp">   -460.82413889 </i>
    <i name="e_0_energy">   -460.82413889 </i>
   </energy>
  </scstep>
  <scstep>
   <time name="dav">   18.37   18.38</time>
   <time name="total">   18.93   18.95</time>
   <energy>
    <i name="e_fr_energy">   -477.26300208 </i>
    <i name="e_wo_entrp">   -477.26300208 </i>
    <i name="e_0_energy">   -477.26300208 </i>
   </energy>
  </scstep>
  <scstep>
   <time name="dav">   17.98   18.00</time>
   <time name="total">   18.55   18.57</time>
   <energy>
    <i name="e_fr_energy">   -487.53271500 </i>
    <i name="e_wo_entrp">   -487.53271500 </i>
    <i name="e_0_energy">   -487.53271500 </i>
   </energy>
  </scstep>
  <scstep>
   <time name="dav">   17.65   17.66</time>
   <time name="total">   18.21   18.23</time>
   <energy>
    <i name="e_fr_energy">   -490.56287683 </i>
    <i name="e_wo_entrp">   -490.56287683 </i>
    <i name="e_0_energy">   -490.56287683 </i>
   </energy>
  </scstep>
  <scstep>
   <time name="dav">   20.30   20.32</time>
   <time name="total">   20.86   20.88</time>
   <energy>
    <i name="e_fr_energy">   -491.84785308 </i>
    <i name="e_wo_entrp">   -491.84785308 </i>
    <i name="e_0_energy">   -491.84785308 </i>
   </energy>
  </scstep>
  <scstep>
   <time name="dav">   16.93   16.95</time>
   <time name="total">   17.49   17.51</time>
   <energy>
    <i name="e_fr_energy">   -492.85161812 </i>
    <i name="e_wo_entrp">   -492.85161812 </i>
    <i name="e_0_energy">   -492.85161812 </i>
   </energy>
  </scstep>
  <scstep>
   <time name="dav">   18.32   18.33</time>
   <time name="total">   18.88   18.90</time>
   <energy>
    <i name="e_fr_energy">   -493.05569520 </i>
    <i name="e_wo_entrp">   -493.05569520 </i>
    <i name="e_0_energy">   -493.05569520 </i>
   </energy>
  </scstep>
  <scstep>
   <time name="dav">   16.45   16.46</time>
   <time name="total">   17.01   17.03</time>
   <energy>
    <i name="e_fr_energy">   -493.10937475 </i>
    <i name="e_wo_entrp">   -493.10937475 </i>
    <i name="e_0_energy">   -493.10937475 </i>
   </energy>
  </scstep>
  <scstep>
   <time name="dav">   18.52   18.54</time>
   <time name="total">   19.08   19.10</time>
   <energy>
    <i name="e_fr_energy">   -493.11805439 </i>
    <i name="e_wo_entrp">   -493.11805439 </i>
    <i name="e_0_energy">   -493.11805439 </i>
   </energy>
  </scstep>
  <scstep>
   <time name="dav">   18.48   18.50</time>
   <time name="total">   19.05   19.07</time>
   <energy>
    <i name="e_fr_energy">   -493.11975377 </i>
    <i name="e_wo_entrp">   -493.11975377 </i>
    <i name="e_0_energy">   -493.11975377 </i>
   </energy>
  </scstep>
  <scstep>
   <time name="dav">   19.97   19.99</time>
   <time name="total">   20.53   20.56</time>
   <energy>
    <i name="e_fr_energy">   -493.11993833 </i>
    <i name="e_wo_entrp">   -493.11993833 </i>
    <i name="e_0_energy">   -493.11993833 </i>
   </energy>
  </scstep>
  <scstep>
   <time name="dav">   18.95   18.97</time>
   <time name="total">   19.52   19.54</time>
   <energy>
    <i name="e_fr_energy">   -493.11997971 </i>
    <i name="e_wo_entrp">   -493.11997971 </i>
    <i name="e_0_energy">   -493.11997971 </i>
   </energy>
  </scstep>
  <scstep>
   <time name="dav">   18.56   18.58</time>
   <time name="total">   19.13   19.15</time>
   <energy>
    <i name="e_fr_energy">   -493.11998689 </i>
    <i name="e_wo_entrp">   -493.11998689 </i>
    <i name="e_0_energy">   -493.11998689 </i>
   </energy>
  </scstep>
  <scstep>
   <time name="dav">   19.64   19.66</time>
   <time name="total">   20.20   20.23</time>
   <energy>
    <i name="e_fr_energy">   -493.11998679 </i>
    <i name="e_wo_entrp">   -493.11998679 </i>
    <i name="e_0_energy">   -493.11998679 </i>
   </energy>
  </scstep>
  <scstep>
   <time name="dav">   18.72   18.74</time>
   <time name="total">   19.28   19.31</time>
   <energy>
    <i name="e_fr_energy">   -493.11998510 </i>
    <i name="e_wo_entrp">   -493.11998510 </i>
    <i name="e_0_energy">   -493.11998510 </i>
   </energy>
  </scstep>
  <scstep>
   <time name="dav">   18.14   18.16</time>
   <time name="total">   18.70   18.72</time>
   <energy>
    <i name="e_fr_energy">   -493.11998500 </i>
    <i name="e_wo_entrp">   -493.11998500 </i>
    <i name="e_0_energy">   -493.11998500 </i>
   </energy>
  </scstep>
  <scstep>
   <time name="dav">   13.85   13.86</time>
   <time name="total">   14.00   14.01</time>
   <energy>
    <i name="alphaZ">   1718.90537276 </i>
    <i name="ewald"> -26553.38446075 </i>
    <i name="hartreedc">  -8496.01378918 </i>
    <i name="XCdc">   1703.77869147 </i>
    <i name="pawpsdc">  55043.01076325 </i>
    <i name="pawaedc"> -55325.21503427 </i>
    <i name="eentropy">      0.00000000 </i>
    <i name="bandstr">  -3330.90942797 </i>
    <i name="atom">  34746.70789969 </i>
    <i name="e_fr_energy">   -493.11998499 </i>
    <i name="e_wo_entrp">   -493.11998499 </i>
    <i name="e_0_energy">   -493.11998499 </i>
   </energy>
  </scstep>
  <structure>
   <crystal>
    <varray name="basis" >
     <v>      10.94816017       0.00000000       0.00000000 </v>
     <v>      -2.73704067       4.74069205       0.00000000 </v>
     <v>       0.00000000       0.00000000      13.40900040 </v>
    </varray>
    <i name="volume">    695.95200650 </i>
    <varray name="rec_basis" >
     <v>       0.09133955       0.05273493       0.00000000 </v>
     <v>       0.00000000       0.21093967       0.00000000 </v>
     <v>       0.00000000       0.00000000       0.07457677 </v>
    </varray>
   </crystal>
   <varray name="positions" >
    <v>       0.33536644       0.33950243       0.59258743 </v>
    <v>       0.83223851       0.33884023       0.58902509 </v>
    <v>       0.17580061       0.68441669       0.91682995 </v>
    <v>       0.67225245       0.67960558       0.92180792 </v>
    <v>       0.16941354       0.67458112       0.41574951 </v>
    <v>       0.66325633       0.66724778       0.41626969 </v>
    <v>       0.00650011       0.00757247       0.24484552 </v>
    <v>       0.51049062       0.01420210       0.80314205 </v>
    <v>       0.40283326       0.49058549       0.10486800 </v>
    <v>       0.90160827       0.46390419       0.06716551 </v>
    <v>       0.00799601       0.02497823       0.99856747 </v>
    <v>       0.51256506       0.02661823       0.01319495 </v>
    <v>       0.00153214       0.00853945       0.50545778 </v>
    <v>       0.49977864       0.00222190       0.50256439 </v>
    <v>       0.34404783       0.35040602       0.32499026 </v>
    <v>       0.82491167       0.33160804       0.32508121 </v>
    <v>       0.34077438       0.34372822       0.83779829 </v>
    <v>       0.84012688       0.34725155       0.83541811 </v>
    <v>       0.16870206       0.67652757       0.67644199 </v>
    <v>       0.66853967       0.67366728       0.67701443 </v>
    <v>       0.18482087       0.69400754       0.16323698 </v>
    <v>       0.67153716       0.66851363       0.16558805 </v>
    <v>       0.26148907       0.99995397       0.25280819 </v>
    <v>       0.77857506       0.98719642       0.25812984 </v>
    <v>       0.22310853       0.00206650       0.75048737 </v>
    <v>       0.71442168       0.99330724       0.75623726 </v>
    <v>       0.99917560       0.55423617       0.25624701 </v>
    <v>       0.50090912       0.55731348       0.25134825 </v>
    <v>       0.99579802       0.45203708       0.74902045 </v>
    <v>       0.49648744       0.43201026       0.74633103 </v>
    <v>       0.21823568       0.45855269       0.25859553 </v>
    <v>       0.72088058       0.45995503       0.25792699 </v>
    <v>       0.27923632       0.56408970       0.75187041 </v>
    <v>       0.77178837       0.54475524       0.75055846 </v>
    <v>       0.11605056       0.34683214       0.57829119 </v>
    <v>       0.61346629       0.35207210       0.57602717 </v>
    <v>       0.04890953       0.32770205       0.08859757 </v>
    <v>       0.54673149       0.35620736       0.07690667 </v>
    <v>       0.32756898       0.88820235       0.57975678 </v>
    <v>       0.82627044       0.88965065       0.57961793 </v>
    <v>       0.32749288       0.75245944       0.07423290 </v>
    <v>       0.83234210       0.75840715       0.08703134 </v>
    <v>       0.05768841       0.77053021       0.57529790 </v>
    <v>       0.55748753       0.78137645       0.58226049 </v>
    <v>       0.10360591       0.87009964       0.08503164 </v>
    <v>       0.61339716       0.88678267       0.07981686 </v>
    <v>       0.45195640       0.67864631       0.91153088 </v>
    <v>       0.94307359       0.65605566       0.92448309 </v>
    <v>       0.38658649       0.65098039       0.42667098 </v>
    <v>       0.88411693       0.66654542       0.41893883 </v>
    <v>       0.17176052       0.22799523       0.92217764 </v>
    <v>       0.66298321       0.22802727       0.91714074 </v>
    <v>       0.15775343       0.10820308       0.41402215 </v>
    <v>       0.67189675       0.11872614       0.42543473 </v>
    <v>       0.39260634       0.10745169       0.91083958 </v>
    <v>       0.88956175       0.11610223       0.92164185 </v>
    <v>       0.43394635       0.22000858       0.42302712 </v>
    <v>       0.94293236       0.22918692       0.42053752 </v>
   </varray>
  </structure>
  <varray name="forces" >
   <v>       0.01288591       0.00404728       0.03653206 </v>
   <v>       0.01977081       0.00772241       0.01274245 </v>
   <v>       0.01652504       0.00671885      -0.01315449 </v>
   <v>       0.03556835       0.00966872       0.00017778 </v>
   <v>      -0.00169762       0.00346657      -0.00310708 </v>
   <v>      -0.00316748      -0.01850889      -0.00443616 </v>
   <v>       0.02552924      -0.01920097       0.00640966 </v>
   <v>       0.00854174       0.00377759       0.00310530 </v>
   <v>       0.00221549       0.00188653       0.00505646 </v>
   <v>       0.00925516      -0.00417080       0.00395394 </v>
   <v>      -0.00743171       0.13386986      -0.00077998 </v>
   <v>       0.02316151       0.10019106       0.10560080 </v>
   <v>       0.02502878       0.05843043       0.04404809 </v>
   <v>       0.01163736      -0.00160980       0.03472341 </v>
   <v>       0.08212701       0.01127444      -0.02842252 </v>
   <v>       0.01982376      -0.00313742      -0.05451662 </v>
   <v>       0.04569812       0.07184067       0.14533721 </v>
   <v>       0.06225856       0.11517200       0.05597877 </v>
   <v>      -0.00194127       0.10708448       0.14151544 </v>
   <v>       0.01844999       0.08590958       0.12245651 </v>
   <v>       0.06257868       0.07239527       0.01877076 </v>
   <v>       0.03129317      -0.01657155       0.00603157 </v>
   <v>      -0.03273048      -0.04223979       0.03644612 </v>
   <v>       0.06127328      -0.01998956       0.04698767 </v>
   <v>      -0.03286800      -0.03537571      -0.10390574 </v>
   <v>      -0.06920086      -0.03000567      -0.05097029 </v>
   <v>      -0.05008397       0.02996993       0.04677205 </v>
   <v>      -0.01016964       0.02892862       0.02172098 </v>
   <v>      -0.00566093      -0.06767081      -0.00232566 </v>
   <v>       0.02621573      -0.03943637      -0.02303693 </v>
   <v>      -0.05809794      -0.02618739       0.00222820 </v>
   <v>      -0.01222678       0.02356402       0.02060848 </v>
   <v>      -0.00538737      -0.03055017      -0.04532860 </v>
   <v>       0.01172060      -0.02998231      -0.04160700 </v>
   <v>       0.07387243      -0.01855861      -0.06800496 </v>
   <v>       0.06213347      -0.00414220      -0.05755876 </v>
   <v>      -0.06703855      -0.06595467       0.00433468 </v>
   <v>      -0.04983419       0.00663415      -0.07305873 </v>
   <v>      -0.05244545       0.02592897      -0.04578876 </v>
   <v>      -0.06424786       0.01058006      -0.04668657 </v>
   <v>       0.00658094      -0.02195697      -0.02719775 </v>
   <v>      -0.01008032      -0.00338818       0.01005763 </v>
   <v>      -0.04717521      -0.05604361      -0.04529460 </v>
   <v>      -0.05608073      -0.04616508      -0.06321214 </v>
   <v>       0.01771869      -0.02855550      -0.02888305 </v>
   <v>      -0.01392047      -0.02752266      -0.04946006 </v>
   <v>       0.04149334      -0.05160073      -0.05302317 </v>
   <v>       0.06243405      -0.05325985       0.00005608 </v>
   <v>      -0.07475843      -0.02796653       0.02487707 </v>
   <v>      -0.08891750      -0.01502508       0.00429395 </v>
   <v>      -0.04403053       0.01774904      -0.00514108 </v>
   <v>      -0.07311924       0.00445392      -0.02484169 </v>
   <v>       0.00626480      -0.06634974      -0.00040820 </v>
   <v>       0.06121585      -0.03765221       0.03655353 </v>
   <v>      -0.06810122      -0.05186301      -0.03874572 </v>
   <v>      -0.02779242      -0.06643711      -0.00514122 </v>
   <v>       0.02335750       0.04240033       0.00704881 </v>
   <v>       0.06157679       0.04341418      -0.00038793 </v>
  </varray>
  <varray name="stress" >
   <v>      30.77964267       6.46138134       0.08072615 </v>
   <v>       6.46138078      37.46350652      -1.72069858 </v>
   <v>       0.08072639      -1.72069844      25.53416241 </v>
  </varray>
  <energy>
   <i name="e_fr_energy">   -493.11998499 </i>
   <i name="e_wo_entrp">   -493.11998499 </i>
   <i name="e_0_energy">      0.00000000 </i>
  </energy>
  <scstep>
   <time name="total">   14.99   15.01</time>
   <energy>
    <i name="e_fr_energy">   -692.44550094 </i>
    <i name="e_wo_entrp">   -692.44550094 </i>
    <i name="e_0_energy">   -692.44550094 </i>
   </energy>
  </scstep>
  <scstep>
   <time name="total">   16.14   16.17</time>
   <energy>
    <i name="e_fr_energy">   -706.99615250 </i>
    <i name="e_wo_entrp">   -706.99615250 </i>
    <i name="e_0_energy">   -706.99615250 </i>
   </energy>
  </scstep>
  <scstep>
   <time name="total">   18.38   18.40</time>
   <energy>
    <i name="e_fr_energy">   -712.46040242 </i>
    <i name="e_wo_entrp">   -712.46040242 </i>
    <i name="e_0_energy">   -712.46040242 </i>
   </energy>
  </scstep>
  <scstep>
   <time name="total">   20.96   20.97</time>
   <energy>
    <i name="e_fr_energy">   -715.88597404 </i>
    <i name="e_wo_entrp">   -715.88597404 </i>
    <i name="e_0_energy">   -715.88597404 </i>
   </energy>
  </scstep>
  <scstep>
   <time name="total">   21.59   21.61</time>
   <energy>
    <i name="e_fr_energy">   -717.12174005 </i>
    <i name="e_wo_entrp">   -717.12174005 </i>
    <i name="e_0_energy">   -717.12174005 </i>
   </energy>
  </scstep>
  <scstep>
   <time name="total">   21.78   21.80</time>
   <energy>
    <i name="e_fr_energy">   -717.66004668 </i>
    <i name="e_wo_entrp">   -717.66004668 </i>
    <i name="e_0_energy">   -717.66004668 </i>
   </energy>
  </scstep>
  <scstep>
   <time name="total">   21.68   21.70</time>
   <energy>
    <i name="e_fr_energy">   -718.14268985 </i>
    <i name="e_wo_entrp">   -718.14268985 </i>
    <i name="e_0_energy">   -718.14268985 </i>
   </energy>
  </scstep>
  <scstep>
   <time name="total">   21.73   21.75</time>
   <energy>
    <i name="e_fr_energy">   -718.41234448 </i>
    <i name="e_wo_entrp">   -718.41234448 </i>
    <i name="e_0_energy">   -718.41234448 </i>
   </energy>
  </scstep>
  <scstep>
   <time name="total">   21.94   21.97</time>
   <energy>
    <i name="e_fr_energy">   -718.57517206 </i>
    <i name="e_wo_entrp">   -718.57517206 </i>
    <i name="e_0_energy">   -718.57517206 </i>
   </energy>
  </scstep>
  <scstep>
   <time name="total">   22.00   22.05</time>
   <energy>
    <i name="e_fr_energy">   -718.63960519 </i>
    <i name="e_wo_entrp">   -718.63960519 </i>
    <i name="e_0_energy">   -718.63960519 </i>
   </energy>
  </scstep>
  <scstep>
   <time name="total">   21.77   21.79</time>
   <energy>
    <i name="e_fr_energy">   -718.66733261 </i>
    <i name="e_wo_entrp">   -718.66733261 </i>
    <i name="e_0_energy">   -718.66733261 </i>
   </energy>
  </scstep>
  <scstep>
   <time name="total">   21.69   21.71</time>
   <energy>
    <i name="e_fr_energy">   -718.70690112 </i>
    <i name="e_wo_entrp">   -718.70690112 </i>
    <i name="e_0_energy">   -718.70690112 </i>
   </energy>
  </scstep>
  <scstep>
   <time name="total">   21.31   21.33</time>
   <energy>
    <i name="e_fr_energy">   -718.71184597 </i>
    <i name="e_wo_entrp">   -718.71184597 </i>
    <i name="e_0_energy">   -718.71184597 </i>
   </energy>
  </scstep>
  <scstep>
   <time name="total">   21.28   21.30</time>
   <energy>
    <i name="e_fr_energy">   -718.72612404 </i>
    <i name="e_wo_entrp">   -718.72612404 </i>
    <i name="e_0_energy">   -718.72612404 </i>
   </energy>
  </scstep>
  <scstep>
   <time name="total">   21.39   21.41</time>
   <energy>
    <i name="e_fr_energy">   -718.72992078 </i>
    <i name="e_wo_entrp">   -718.72992078 </i>
    <i name="e_0_energy">   -718.72992078 </i>
   </energy>
  </scstep>
  <scstep>
   <time name="total">   21.25   21.29</time>
   <energy>
    <i name="e_fr_energy">   -718.73509119 </i>
    <i name="e_wo_entrp">   -718.73509119 </i>
    <i name="e_0_energy">   -718.73509119 </i>
   </energy>
  </scstep>
  <scstep>
   <time name="total">   21.18   21.19</time>
   <energy>
    <i name="e_fr_energy">   -718.73644890 </i>
    <i name="e_wo_entrp">   -718.73644890 </i>
    <i name="e_0_energy">   -718.73644890 </i>
   </energy>
  </scstep>
  <scstep>
   <time name="total">   21.33   21.35</time>
   <energy>
    <i name="e_fr_energy">   -718.74060602 </i>
    <i name="e_wo_entrp">   -718.74060602 </i>
    <i name="e_0_energy">   -718.74060602 </i>
   </energy>
  </scstep>
  <scstep>
   <time name="total">   21.13   21.15</time>
   <energy>
    <i name="e_fr_energy">   -718.73301025 </i>
    <i name="e_wo_entrp">   -718.73301025 </i>
    <i name="e_0_energy">   -718.73301025 </i>
   </energy>
  </scstep>
  <scstep>
   <time name="total">   21.26   21.28</time>
   <energy>
    <i name="e_fr_energy">   -718.73672744 </i>
    <i name="e_wo_entrp">   -718.73672744 </i>
    <i name="e_0_energy">   -718.73672744 </i>
   </energy>
  </scstep>
  <scstep>
   <time name="total">   21.06   21.08</time>
   <energy>
    <i name="e_fr_energy">   -718.73595087 </i>
    <i name="e_wo_entrp">   -718.73595087 </i>
    <i name="e_0_energy">   -718.73595087 </i>
   </energy>
  </scstep>
  <scstep>
   <time name="total">   20.99   21.01</time>
   <energy>
    <i name="e_fr_energy">   -718.73922988 </i>
    <i name="e_wo_entrp">   -718.73922988 </i>
    <i name="e_0_energy">   -718.73922988 </i>
   </energy>
  </scstep>
  <scstep>
   <time name="total">   21.02   21.03</time>
   <energy>
    <i name="e_fr_energy">   -718.73965796 </i>
    <i name="e_wo_entrp">   -718.73965796 </i>
    <i name="e_0_energy">   -718.73965796 </i>
   </energy>
  </scstep>
  <scstep>
   <time name="total">   21.12   21.14</time>
   <energy>
    <i name="e_fr_energy">   -718.74262371 </i>
    <i name="e_wo_entrp">   -718.74262371 </i>
    <i name="e_0_energy">   -718.74262371 </i>
   </energy>
  </scstep>
  <scstep>
   <time name="total">   20.84   20.86</time>
   <energy>
    <i name="e_fr_energy">   -718.74340914 </i>
    <i name="e_wo_entrp">   -718.74340914 </i>
    <i name="e_0_energy">   -718.74340914 </i>
   </energy>
  </scstep>
  <scstep>
   <time name="total">   20.91   20.94</time>
   <energy>
    <i name="e_fr_energy">   -718.74651633 </i>
    <i name="e_wo_entrp">   -718.74651633 </i>
    <i name="e_0_energy">   -718.74651633 </i>
   </energy>
  </scstep>
  <scstep>
   <time name="total">   20.72   20.74</time>
   <energy>
    <i name="e_fr_energy">   -718.74912039 </i>
    <i name="e_wo_entrp">   -718.74912039 </i>
    <i name="e_0_energy">   -718.74912039 </i>
   </energy>
  </scstep>
  <scstep>
   <time name="total">   21.01   21.03</time>
   <energy>
    <i name="e_fr_energy">   -718.75068335 </i>
    <i name="e_wo_entrp">   -718.75068335 </i>
    <i name="e_0_energy">   -718.75068335 </i>
   </energy>
  </scstep>
  <scstep>
   <time name="total">   20.48   20.49</time>
   <energy>
    <i name="e_fr_energy">   -718.75344041 </i>
    <i name="e_wo_entrp">   -718.75344041 </i>
    <i name="e_0_energy">   -718.75344041 </i>
   </energy>
  </scstep>
  <scstep>
   <time name="total">   20.74   20.76</time>
   <energy>
    <i name="e_fr_energy">   -718.75697661 </i>
    <i name="e_wo_entrp">   -718.75697661 </i>
    <i name="e_0_energy">   -718.75697661 </i>
   </energy>
  </scstep>
  <scstep>
   <time name="total">   14.98   14.99</time>
   <energy>
    <i name="e_fr_energy">   -684.76305369 </i>
    <i name="e_wo_entrp">   -684.76305369 </i>
    <i name="e_0_energy">   -684.76305369 </i>
   </energy>
  </scstep>
  <scstep>
   <time name="total">   15.81   15.82</time>
   <energy>
    <i name="e_fr_energy">   -689.51799393 </i>
    <i name="e_wo_entrp">   -689.51799393 </i>
    <i name="e_0_energy">   -689.51799393 </i>
   </energy>
  </scstep>
  <scstep>
   <time name="total">   18.73   18.75</time>
   <energy>
    <i name="e_fr_energy">   -694.19205774 </i>
    <i name="e_wo_entrp">   -694.19205774 </i>
    <i name="e_0_energy">   -694.19205774 </i>
   </energy>
  </scstep>
  <scstep>
   <time name="total">   21.15   21.19</time>
   <energy>
    <i name="e_fr_energy">   -697.86426002 </i>
    <i name="e_wo_entrp">   -697.86426002 </i>
    <i name="e_0_energy">   -697.86426002 </i>
   </energy>
  </scstep>
  <scstep>
   <time name="total">   21.62   21.64</time>
   <energy>
    <i name="e_fr_energy">   -699.11831635 </i>
    <i name="e_wo_entrp">   -699.11831635 </i>
    <i name="e_0_energy">   -699.11831635 </i>
   </energy>
  </scstep>
  <scstep>
   <time name="total">   21.69   21.72</time>
   <energy>
    <i name="e_fr_energy">   -699.68213067 </i>
    <i name="e_wo_entrp">   -699.68213067 </i>
    <i name="e_0_energy">   -699.68213067 </i>
   </energy>
  </scstep>
  <scstep>
   <time name="total">   21.70   21.73</time>
   <energy>
    <i name="e_fr_energy">   -700.35295165 </i>
    <i name="e_wo_entrp">   -700.35295165 </i>
    <i name="e_0_energy">   -700.35295165 </i>
   </energy>
  </scstep>
  <scstep>
   <time name="total">   21.87   21.90</time>
   <energy>
    <i name="e_fr_energy">   -700.56291277 </i>
    <i name="e_wo_entrp">   -700.56291277 </i>
    <i name="e_0_energy">   -700.56291277 </i>
   </energy>
  </scstep>
  <scstep>
   <time name="total">   21.81   21.84</time>
   <energy>
    <i name="e_fr_energy">   -700.69236157 </i>
    <i name="e_wo_entrp">   -700.69236157 </i>
    <i name="e_0_energy">   -700.69236157 </i>
   </energy>
  </scstep>
  <scstep>
   <time name="total">   22.00   22.02</time>
   <energy>
    <i name="e_fr_energy">   -700.77996783 </i>
    <i name="e_wo_entrp">   -700.77996783 </i>
    <i name="e_0_energy">   -700.77996783 </i>
   </energy>
  </scstep>
  <scstep>
   <time name="total">   21.79   21.81</time>
   <energy>
    <i name="e_fr_energy">   -700.83012242 </i>
    <i name="e_wo_entrp">   -700.83012242 </i>
    <i name="e_0_energy">   -700.83012242 </i>
   </energy>
  </scstep>
  <scstep>
   <time name="total">   21.69   21.70</time>
   <energy>
    <i name="e_fr_energy">   -700.84881250 </i>
    <i name="e_wo_entrp">   -700.84881250 </i>
    <i name="e_0_energy">   -700.84881250 </i>
   </energy>
  </scstep>
  <scstep>
   <time name="total">   21.58   21.60</time>
   <energy>
    <i name="e_fr_energy">   -700.86218359 </i>
    <i name="e_wo_entrp">   -700.86218359 </i>
    <i name="e_0_energy">   -700.86218359 </i>
   </energy>
  </scstep>
  <scstep>
   <time name="total">   21.41   21.42</time>
   <energy>
    <i name="e_fr_energy">   -700.86945833 </i>
    <i name="e_wo_entrp">   -700.86945833 </i>
    <i name="e_0_energy">   -700.86945833 </i>
   </energy>
  </scstep>
  <scstep>
   <time name="total">   21.39   21.41</time>
   <energy>
    <i name="e_fr_energy">   -700.86309272 </i>
    <i name="e_wo_entrp">   -700.86309272 </i>
    <i name="e_0_energy">   -700.86309272 </i>
   </energy>
  </scstep>
  <scstep>
   <time name="total">   21.43   21.44</time>
   <energy>
    <i name="e_fr_energy">   -700.86889298 </i>
    <i name="e_wo_entrp">   -700.86889298 </i>
    <i name="e_0_energy">   -700.86889298 </i>
   </energy>
  </scstep>
  <scstep>
   <time name="total">   21.81   21.83</time>
   <energy>
    <i name="e_fr_energy">   -700.88500658 </i>
    <i name="e_wo_entrp">   -700.88500658 </i>
    <i name="e_0_energy">   -700.88500658 </i>
   </energy>
  </scstep>
  <scstep>
   <time name="total">   21.28   21.31</time>
   <energy>
    <i name="e_fr_energy">   -700.88920253 </i>
    <i name="e_wo_entrp">   -700.88920253 </i>
    <i name="e_0_energy">   -700.88920253 </i>
   </energy>
  </scstep>
  <scstep>
   <time name="total">   21.26   21.29</time>
   <energy>
    <i name="e_fr_energy">   -700.89486523 </i>
    <i name="e_wo_entrp">   -700.89486523 </i>
    <i name="e_0_energy">   -700.89486523 </i>
   </energy>
  </scstep>
  <scstep>
   <time name="total">   21.29   21.31</time>
   <energy>
    <i name="e_fr_energy">   -700.88809539 </i>
    <i name="e_wo_entrp">   -700.88809539 </i>
    <i name="e_0_energy">   -700.88809539 </i>
   </energy>
  </scstep>
  <scstep>
   <time name="total">   21.22   21.24</time>
   <energy>
    <i name="e_fr_energy">   -700.89275686 </i>
    <i name="e_wo_entrp">   -700.89275686 </i>
    <i name="e_0_energy">   -700.89275686 </i>
   </energy>
  </scstep>
  <scstep>
   <time name="total">   21.28   21.30</time>
   <energy>
    <i name="e_fr_energy">   -700.88863643 </i>
    <i name="e_wo_entrp">   -700.88863643 </i>
    <i name="e_0_energy">   -700.88863643 </i>
   </energy>
  </scstep>
  <scstep>
   <time name="total">   21.19   21.21</time>
   <energy>
    <i name="e_fr_energy">   -700.89400716 </i>
    <i name="e_wo_entrp">   -700.89400716 </i>
    <i name="e_0_energy">   -700.89400716 </i>
   </energy>
  </scstep>
  <scstep>
   <time name="total">   21.07   21.09</time>
   <energy>
    <i name="e_fr_energy">   -700.88905768 </i>
    <i name="e_wo_entrp">   -700.88905768 </i>
    <i name="e_0_energy">   -700.88905768 </i>
   </energy>
  </scstep>
  <scstep>
   <time name="total">   21.08   21.09</time>
   <energy>
    <i name="e_fr_energy">   -700.89442587 </i>
    <i name="e_wo_entrp">   -700.89442587 </i>
    <i name="e_0_energy">   -700.89442587 </i>
   </energy>
  </scstep>
  <scstep>
   <time name="total">   21.00   21.02</time>
   <energy>
    <i name="e_fr_energy">   -700.89061222 </i>
    <i name="e_wo_entrp">   -700.89061222 </i>
    <i name="e_0_energy">   -700.89061222 </i>
   </energy>
  </scstep>
  <scstep>
   <time name="total">   20.85   20.86</time>
   <energy>
    <i name="e_fr_energy">   -700.89336697 </i>
    <i name="e_wo_entrp">   -700.89336697 </i>
    <i name="e_0_energy">   -700.89336697 </i>
   </energy>
  </scstep>
  <scstep>
   <time name="total">   20.82   20.84</time>
   <energy>
    <i name="e_fr_energy">   -700.88774781 </i>
    <i name="e_wo_entrp">   -700.88774781 </i>
    <i name="e_0_energy">   -700.88774781 </i>
   </energy>
  </scstep>
  <scstep>
   <time name="total">   20.68   20.70</time>
   <energy>
    <i name="e_fr_energy">   -700.89369069 </i>
    <i name="e_wo_entrp">   -700.89369069 </i>
    <i name="e_0_energy">   -700.89369069 </i>
   </energy>
  </scstep>
  <scstep>
   <time name="total">   20.71   20.73</time>
   <energy>
    <i name="e_fr_energy">   -700.88914743 </i>
    <i name="e_wo_entrp">   -700.88914743 </i>
    <i name="e_0_energy">   -700.88914743 </i>
   </energy>
  </scstep>
  <scstep>
   <time name="total">   20.07   20.09</time>
   <energy>
    <i name="e_fr_energy">   -700.89492272 </i>
    <i name="e_wo_entrp">   -700.89492272 </i>
    <i name="e_0_energy">   -700.89492272 </i>
   </energy>
  </scstep>
  <scstep>
   <time name="total">   15.06   15.07</time>
   <energy>
    <i name="e_fr_energy">   -722.33025400 </i>
    <i name="e_wo_entrp">   -722.33025400 </i>
    <i name="e_0_energy">   -722.33025400 </i>
   </energy>
  </scstep>
  <scstep>
   <time name="total">   16.13   16.14</time>
   <energy>
    <i name="e_fr_energy">   -730.39073863 </i>
    <i name="e_wo_entrp">   -730.39073863 </i>
    <i name="e_0_energy">   -730.39073863 </i>
   </energy>
  </scstep>
  <scstep>
   <time name="total">   18.73   18.75</time>
   <energy>
    <i name="e_fr_energy">   -734.90571551 </i>
    <i name="e_wo_entrp">   -734.90571551 </i>
    <i name="e_0_energy">   -734.90571551 </i>
   </energy>
  </scstep>
  <scstep>
   <time name="total">   21.27   21.29</time>
   <energy>
    <i name="e_fr_energy">   -738.19355734 </i>
    <i name="e_wo_entrp">   -738.19355734 </i>
    <i name="e_0_energy">   -738.19355734 </i>
   </energy>
  </scstep>
  <scstep>
   <time name="total">   21.60   21.62</time>
   <energy>
    <i name="e_fr_energy">   -739.65840943 </i>
    <i name="e_wo_entrp">   -739.65840943 </i>
    <i name="e_0_energy">   -739.65840943 </i>
   </energy>
  </scstep>
  <scstep>
   <time name="total">   21.69   21.70</time>
   <energy>
    <i name="e_fr_energy">   -740.36356361 </i>
    <i name="e_wo_entrp">   -740.36356361 </i>
    <i name="e_0_energy">   -740.36356361 </i>
   </energy>
  </scstep>
  <scstep>
   <time name="total">   21.69   21.71</time>
   <energy>
    <i name="e_fr_energy">   -740.92227756 </i>
    <i name="e_wo_entrp">   -740.92227756 </i>
    <i name="e_0_energy">   -740.92227756 </i>
   </energy>
  </scstep>
  <scstep>
   <time name="total">   22.05   22.06</time>
   <energy>
    <i name="e_fr_energy">   -741.21463225 </i>
    <i name="e_wo_entrp">   -741.21463225 </i>
    <i name="e_0_energy">   -741.21463225 </i>
   </energy>
  </scstep>
  <scstep>
   <time name="total">   22.17   22.19</time>
   <energy>
    <i name="e_fr_energy">   -741.32027488 </i>
    <i name="e_wo_entrp">   -741.32027488 </i>
    <i name="e_0_energy">   -741.32027488 </i>
   </energy>
  </scstep>
  <scstep>
   <time name="total">   22.25   22.27</time>
   <energy>
    <i name="e_fr_energy">   -741.34239852 </i>
    <i name="e_wo_entrp">   -741.34239852 </i>
    <i name="e_0_energy">   -741.34239852 </i>
   </energy>
  </scstep>
  <scstep>
   <time name="total">   22.04   22.05</time>
   <energy>
    <i name="e_fr_energy">   -741.42265022 </i>
    <i name="e_wo_entrp">   -741.42265022 </i>
    <i name="e_0_energy">   -741.42265022 </i>
   </energy>
  </scstep>
  <scstep>
   <time name="total">   21.90   21.92</time>
   <energy>
    <i name="e_fr_energy">   -741.41852616 </i>
    <i name="e_wo_entrp">   -741.41852616 </i>
    <i name="e_0_energy">   -741.41852616 </i>
   </energy>
  </scstep>
  <scstep>
   <time name="total">   21.87   21.89</time>
   <energy>
    <i name="e_fr_energy">   -741.44843119 </i>
    <i name="e_wo_entrp">   -741.44843119 </i>
    <i name="e_0_energy">   -741.44843119 </i>
   </energy>
  </scstep>
  <scstep>
   <time name="total">   21.86   21.88</time>
   <energy>
    <i name="e_fr_energy">   -741.44349580 </i>
    <i name="e_wo_entrp">   -741.44349580 </i>
    <i name="e_0_energy">   -741.44349580 </i>
   </energy>
  </scstep>
  <scstep>
   <time name="total">   21.65   21.66</time>
   <energy>
    <i name="e_fr_energy">   -741.46833909 </i>
    <i name="e_wo_entrp">   -741.46833909 </i>
    <i name="e_0_energy">   -741.46833909 </i>
   </energy>
  </scstep>
  <scstep>
   <time name="total">   21.34   21.36</time>
   <energy>
    <i name="e_fr_energy">   -741.45528524 </i>
    <i name="e_wo_entrp">   -741.45528524 </i>
    <i name="e_0_energy">   -741.45528524 </i>
   </energy>
  </scstep>
  <scstep>
   <time name="total">   21.57   21.59</time>
   <energy>
    <i name="e_fr_energy">   -741.46894537 </i>
    <i name="e_wo_entrp">   -741.46894537 </i>
    <i name="e_0_energy">   -741.46894537 </i>
   </energy>
  </scstep>
  <scstep>
   <time name="total">   21.30   21.32</time>
   <energy>
    <i name="e_fr_energy">   -741.46700700 </i>
    <i name="e_wo_entrp">   -741.46700700 </i>
    <i name="e_0_energy">   -741.46700700 </i>
   </energy>
  </scstep>
  <scstep>
   <time name="total">   21.20   21.22</time>
   <energy>
    <i name="e_fr_energy">   -741.47535728 </i>
    <i name="e_wo_entrp">   -741.47535728 </i>
    <i name="e_0_energy">   -741.47535728 </i>
   </energy>
  </scstep>
  <scstep>
   <time name="total">   21.36   21.37</time>
   <energy>
    <i name="e_fr_energy">   -741.46807941 </i>
    <i name="e_wo_entrp">   -741.46807941 </i>
    <i name="e_0_energy">   -741.46807941 </i>
   </energy>
  </scstep>
  <scstep>
   <time name="total">   21.17   21.18</time>
   <energy>
    <i name="e_fr_energy">   -741.47527052 </i>
    <i name="e_wo_entrp">   -741.47527052 </i>
    <i name="e_0_energy">   -741.47527052 </i>
   </energy>
  </scstep>
  <scstep>
   <time name="total">   21.07   21.09</time>
   <energy>
    <i name="e_fr_energy">   -741.46850640 </i>
    <i name="e_wo_entrp">   -741.46850640 </i>
    <i name="e_0_energy">   -741.46850640 </i>
   </energy>
  </scstep>
  <scstep>
   <time name="total">   21.10   21.12</time>
   <energy>
    <i name="e_fr_energy">   -741.47205910 </i>
    <i name="e_wo_entrp">   -741.47205910 </i>
    <i name="e_0_energy">   -741.47205910 </i>
   </energy>
  </scstep>
  <scstep>
   <time name="total">   20.96   20.98</time>
   <energy>
    <i name="e_fr_energy">   -741.46987066 </i>
    <i name="e_wo_entrp">   -741.46987066 </i>
    <i name="e_0_energy">   -741.46987066 </i>
   </energy>
  </scstep>
  <scstep>
   <time name="total">   21.04   21.06</time>
   <energy>
    <i name="e_fr_energy">   -741.47652763 </i>
    <i name="e_wo_entrp">   -741.47652763 </i>
    <i name="e_0_energy">   -741.47652763 </i>
   </energy>
  </scstep>
  <scstep>
   <time name="total">   21.07   21.09</time>
   <energy>
    <i name="e_fr_energy">   -741.47176842 </i>
    <i name="e_wo_entrp">   -741.47176842 </i>
    <i name="e_0_energy">   -741.47176842 </i>
   </energy>
  </scstep>
  <scstep>
   <time name="total">   20.79   20.81</time>
   <energy>
    <i name="e_fr_energy">   -741.47203000 </i>
    <i name="e_wo_entrp">   -741.47203000 </i>
    <i name="e_0_energy">   -741.47203000 </i>
   </energy>
  </scstep>
  <scstep>
   <time name="total">   20.85   20.87</time>
   <energy>
    <i name="e_fr_energy">   -741.47205937 </i>
    <i name="e_wo_entrp">   -741.47205937 </i>
    <i name="e_0_energy">   -741.47205937 </i>
   </energy>
  </scstep>
  <scstep>
   <time name="total">   15.08   15.09</time>
   <energy>
    <i name="e_fr_energy">   -698.01575697 </i>
    <i name="e_wo_entrp">   -698.01575697 </i>
    <i name="e_0_energy">   -698.01575697 </i>
   </energy>
  </scstep>
  <scstep>
   <time name="total">   15.95   15.96</time>
   <energy>
    <i name="e_fr_energy">   -706.10533272 </i>
    <i name="e_wo_entrp">   -706.10533272 </i>
    <i name="e_0_energy">   -706.10533272 </i>
   </energy>
  </scstep>
  <scstep>
   <time name="total">   17.63   17.65</time>
   <energy>
    <i name="e_fr_energy">   -710.55012501 </i>
    <i name="e_wo_entrp">   -710.55012501 </i>
    <i name="e_0_energy">   -710.55012501 </i>
   </energy>
  </scstep>
  <scstep>
   <time name="total">   20.94   20.96</time>
   <energy>
    <i name="e_fr_energy">   -714.28471372 </i>
    <i name="e_wo_entrp">   -714.28471372 </i>
    <i name="e_0_energy">   -714.28471372 </i>
   </energy>
  </scstep>
  <scstep>
   <time name="total">   21.60   21.62</time>
   <energy>
    <i name="e_fr_energy">   -715.58624447 </i>
    <i name="e_wo_entrp">   -715.58624447 </i>
    <i name="e_0_energy">   -715.58624447 </i>
   </energy>
  </scstep>
  <scstep>
   <time name="total">   21.61   21.63</time>
   <energy>
    <i name="e_fr_energy">   -716.22504260 </i>
    <i name="e_wo_entrp">   -716.22504260 </i>
    <i name="e_0_energy">   -716.22504260 </i>
   </energy>
  </scstep>
  <scstep>
   <time name="total">   21.41   21.42</time>
   <energy>
    <i name="e_fr_energy">   -716.84496983 </i>
    <i name="e_wo_entrp">   -716.84496983 </i>
    <i name="e_0_energy">   -716.84496983 </i>
   </energy>
  </scstep>
  <scstep>
   <time name="total">   21.77   21.78</time>
   <energy>
    <i name="e_fr_energy">   -717.00855163 </i>
    <i name="e_wo_entrp">   -717.00855163 </i>
    <i name="e_0_energy">   -717.00855163 </i>
   </energy>
  </scstep>
  <scstep>
   <time name="total">   21.76   21.78</time>
   <energy>
    <i name="e_fr_energy">   -717.12489833 </i>
    <i name="e_wo_entrp">   -717.12489833 </i>
    <i name="e_0_energy">   -717.12489833 </i>
   </energy>
  </scstep>
  <scstep>
   <time name="total">   21.84   21.86</time>
   <energy>
    <i name="e_fr_energy">   -717.21662946 </i>
    <i name="e_wo_entrp">   -717.21662946 </i>
    <i name="e_0_energy">   -717.21662946 </i>
   </energy>
  </scstep>
  <scstep>
   <time name="total">   21.91   21.93</time>
   <energy>
    <i name="e_fr_energy">   -717.24689686 </i>
    <i name="e_wo_entrp">   -717.24689686 </i>
    <i name="e_0_energy">   -717.24689686 </i>
   </energy>
  </scstep>
  <scstep>
   <time name="total">   21.69   21.71</time>
   <energy>
    <i name="e_fr_energy">   -717.26729900 </i>
    <i name="e_wo_entrp">   -717.26729900 </i>
    <i name="e_0_energy">   -717.26729900 </i>
   </energy>
  </scstep>
  <scstep>
   <time name="total">   21.59   21.61</time>
   <energy>
    <i name="e_fr_energy">   -717.27843235 </i>
    <i name="e_wo_entrp">   -717.27843235 </i>
    <i name="e_0_energy">   -717.27843235 </i>
   </energy>
  </scstep>
  <scstep>
   <time name="total">   21.39   21.41</time>
   <energy>
    <i name="e_fr_energy">   -717.26610635 </i>
    <i name="e_wo_entrp">   -717.26610635 </i>
    <i name="e_0_energy">   -717.26610635 </i>
   </energy>
  </scstep>
  <scstep>
   <time name="total">   21.28   21.30</time>
   <energy>
    <i name="e_fr_energy">   -717.29183229 </i>
    <i name="e_wo_entrp">   -717.29183229 </i>
    <i name="e_0_energy">   -717.29183229 </i>
   </energy>
  </scstep>
  <scstep>
   <time name="total">   21.39   21.41</time>
   <energy>
    <i name="e_fr_energy">   -717.30861154 </i>
    <i name="e_wo_entrp">   -717.30861154 </i>
    <i name="e_0_energy">   -717.30861154 </i>
   </energy>
  </scstep>
  <scstep>
   <time name="total">   21.35   21.37</time>
   <energy>
    <i name="e_fr_energy">   -717.31609322 </i>
    <i name="e_wo_entrp">   -717.31609322 </i>
    <i name="e_0_energy">   -717.31609322 </i>
   </energy>
  </scstep>
  <scstep>
   <time name="total">   21.20   21.21</time>
   <energy>
    <i name="e_fr_energy">   -717.32284148 </i>
    <i name="e_wo_entrp">   -717.32284148 </i>
    <i name="e_0_energy">   -717.32284148 </i>
   </energy>
  </scstep>
  <scstep>
   <time name="total">   21.14   21.16</time>
   <energy>
    <i name="e_fr_energy">   -717.32355564 </i>
    <i name="e_wo_entrp">   -717.32355564 </i>
    <i name="e_0_energy">   -717.32355564 </i>
   </energy>
  </scstep>
  <scstep>
   <time name="total">   21.25   21.27</time>
   <energy>
    <i name="e_fr_energy">   -717.33564291 </i>
    <i name="e_wo_entrp">   -717.33564291 </i>
    <i name="e_0_energy">   -717.33564291 </i>
   </energy>
  </scstep>
  <scstep>
   <time name="total">   21.10   21.11</time>
   <energy>
    <i name="e_fr_energy">   -717.33908571 </i>
    <i name="e_wo_entrp">   -717.33908571 </i>
    <i name="e_0_energy">   -717.33908571 </i>
   </energy>
  </scstep>
  <scstep>
   <time name="total">   21.08   21.09</time>
   <energy>
    <i name="e_fr_energy">   -717.34337671 </i>
    <i name="e_wo_entrp">   -717.34337671 </i>
    <i name="e_0_energy">   -717.34337671 </i>
   </energy>
  </scstep>
  <scstep>
   <time name="total">   21.00   21.01</time>
   <energy>
    <i name="e_fr_energy">   -717.34296745 </i>
    <i name="e_wo_entrp">   -717.34296745 </i>
    <i name="e_0_energy">   -717.34296745 </i>
   </energy>
  </scstep>
  <scstep>
   <time name="total">   20.92   20.94</time>
   <energy>
    <i name="e_fr_energy">   -717.34590341 </i>
    <i name="e_wo_entrp">   -717.34590341 </i>
    <i name="e_0_energy">   -717.34590341 </i>
   </energy>
  </scstep>
  <scstep>
   <time name="total">   20.90   20.91</time>
   <energy>
    <i name="e_fr_energy">   -717.34290080 </i>
    <i name="e_wo_entrp">   -717.34290080 </i>
    <i name="e_0_energy">   -717.34290080 </i>
   </energy>
  </scstep>
  <scstep>
   <time name="total">   20.77   20.78</time>
   <energy>
    <i name="e_fr_energy">   -717.34581917 </i>
    <i name="e_wo_entrp">   -717.34581917 </i>
    <i name="e_0_energy">   -717.34581917 </i>
   </energy>
  </scstep>
  <scstep>
   <time name="total">   20.91   20.93</time>
   <energy>
    <i name="e_fr_energy">   -717.33954152 </i>
    <i name="e_wo_entrp">   -717.33954152 </i>
    <i name="e_0_energy">   -717.33954152 </i>
   </energy>
  </scstep>
  <scstep>
   <time name="total">   20.70   20.72</time>
   <energy>
    <i name="e_fr_energy">   -717.34525465 </i>
    <i name="e_wo_entrp">   -717.34525465 </i>
    <i name="e_0_energy">   -717.34525465 </i>
   </energy>
  </scstep>
  <scstep>
   <time name="total">   20.52   20.54</time>
   <energy>
    <i name="e_fr_energy">   -717.34132307 </i>
    <i name="e_wo_entrp">   -717.34132307 </i>
    <i name="e_0_energy">   -717.34132307 </i>
   </energy>
  </scstep>
  <scstep>
   <time name="total">   20.68   20.70</time>
   <energy>
    <i name="e_fr_energy">   -717.34732565 </i>
    <i name="e_wo_entrp">   -717.34732565 </i>
    <i name="e_0_energy">   -717.34732565 </i>
   </energy>
  </scstep>
  <scstep>
   <time name="total">   20.38   20.40</time>
   <energy>
    <i name="e_fr_energy">   -717.34283464 </i>
    <i name="e_wo_entrp">   -717.34283464 </i>
    <i name="e_0_energy">   -717.34283464 </i>
   </energy>
  </scstep>
  <scstep>
   <time name="total">   20.52   20.54</time>
   <energy>
    <i name="e_fr_energy">   -717.34642921 </i>
    <i name="e_wo_entrp">   -717.34642921 </i>
    <i name="e_0_energy">   -717.34642921 </i>
   </energy>
  </scstep>
  <scstep>
   <time name="total">   15.00   15.02</time>
   <energy>
    <i name="e_fr_energy">   -684.06832944 </i>
    <i name="e_wo_entrp">   -684.06832944 </i>
    <i name="e_0_energy">   -684.06832944 </i>
   </energy>
  </scstep>
  <scstep>
   <time name="total">   15.61   15.62</time>
   <energy>
    <i name="e_fr_energy">   -689.18993130 </i>
    <i name="e_wo_entrp">   -689.18993130 </i>
    <i name="e_0_energy">   -689.18993130 </i>
   </energy>
  </scstep>
  <scstep>
   <time name="total">   18.08   18.09</time>
   <energy>
    <i name="e_fr_energy">   -693.07403128 </i>
    <i name="e_wo_entrp">   -693.07403128 </i>
    <i name="e_0_energy">   -693.07403128 </i>
   </energy>
  </scstep>
  <scstep>
   <time name="total">   20.82   20.84</time>
   <energy>
    <i name="e_fr_energy">   -696.77693992 </i>
    <i name="e_wo_entrp">   -696.77693992 </i>
    <i name="e_0_energy">   -696.77693992 </i>
   </energy>
  </scstep>
  <scstep>
   <time name="total">   21.67   21.69</time>
   <energy>
    <i name="e_fr_energy">   -698.17471402 </i>
    <i name="e_wo_entrp">   -698.17471402 </i>
    <i name="e_0_energy">   -698.17471402 </i>
   </energy>
  </scstep>
  <scstep>
   <time name="total">   21.51   21.54</time>
   <energy>
    <i name="e_fr_energy">   -698.84850045 </i>
    <i name="e_wo_entrp">   -698.84850045 </i>
    <i name="e_0_energy">   -698.84850045 </i>
   </energy>
  </scstep>
  <scstep>
   <time name="total">   21.65   21.66</time>
   <energy>
    <i name="e_fr_energy">   -699.70783881 </i>
    <i name="e_wo_entrp">   -699.70783881 </i>
    <i name="e_0_energy">   -699.70783881 </i>
   </energy>
  </scstep>
  <scstep>
   <time name="total">   21.71   21.73</time>
   <energy>
    <i name="e_fr_energy">   -699.84213942 </i>
    <i name="e_wo_entrp">   -699.84213942 </i>
    <i name="e_0_energy">   -699.84213942 </i>
   </energy>
  </scstep>
  <scstep>
   <time name="total">   21.83   21.85</time>
   <energy>
    <i name="e_fr_energy">   -699.94520658 </i>
    <i name="e_wo_entrp">   -699.94520658 </i>
    <i name="e_0_energy">   -699.94520658 </i>
   </energy>
  </scstep>
  <scstep>
   <time name="total">   21.80   21.82</time>
   <energy>
    <i name="e_fr_energy">   -700.03224544 </i>
    <i name="e_wo_entrp">   -700.03224544 </i>
    <i name="e_0_energy">   -700.03224544 </i>
   </energy>
  </scstep>
  <scstep>
   <time name="total">   21.54   21.56</time>
   <energy>
    <i name="e_fr_energy">   -700.10569511 </i>
    <i name="e_wo_entrp">   -700.10569511 </i>
    <i name="e_0_energy">   -700.10569511 </i>
   </energy>
  </scstep>
  <scstep>
   <time name="total">   21.77   21.79</time>
   <energy>
    <i name="e_fr_energy">   -700.11875577 </i>
    <i name="e_wo_entrp">   -700.11875577 </i>
    <i name="e_0_energy">   -700.11875577 </i>
   </energy>
  </scstep>
  <scstep>
   <time name="total">   21.66   21.68</time>
   <energy>
    <i name="e_fr_energy">   -700.13312742 </i>
    <i name="e_wo_entrp">   -700.13312742 </i>
    <i name="e_0_energy">   -700.13312742 </i>
   </energy>
  </scstep>
  <scstep>
   <time name="total">   21.19   21.21</time>
   <energy>
    <i name="e_fr_energy">   -700.12478123 </i>
    <i name="e_wo_entrp">   -700.12478123 </i>
    <i name="e_0_energy">   -700.12478123 </i>
   </energy>
  </scstep>
  <scstep>
   <time name="total">   21.31   21.33</time>
   <energy>
    <i name="e_fr_energy">   -700.13869647 </i>
    <i name="e_wo_entrp">   -700.13869647 </i>
    <i name="e_0_energy">   -700.13869647 </i>
   </energy>
  </scstep>
  <scstep>
   <time name="total">   21.27   21.28</time>
   <energy>
    <i name="e_fr_energy">   -700.14800245 </i>
    <i name="e_wo_entrp">   -700.14800245 </i>
    <i name="e_0_energy">   -700.14800245 </i>
   </energy>
  </scstep>
  <scstep>
   <time name="total">   21.30   21.32</time>
   <energy>
    <i name="e_fr_energy">   -700.15802822 </i>
    <i name="e_wo_entrp">   -700.15802822 </i>
    <i name="e_0_energy">   -700.15802822 </i>
   </energy>
  </scstep>
  <scstep>
   <time name="total">   21.17   21.19</time>
   <energy>
    <i name="e_fr_energy">   -700.16433086 </i>
    <i name="e_wo_entrp">   -700.16433086 </i>
    <i name="e_0_energy">   -700.16433086 </i>
   </energy>
  </scstep>
  <scstep>
   <time name="total">   21.20   21.21</time>
   <energy>
    <i name="e_fr_energy">   -700.16726262 </i>
    <i name="e_wo_entrp">   -700.16726262 </i>
    <i name="e_0_energy">   -700.16726262 </i>
   </energy>
  </scstep>
  <scstep>
   <time name="total">   21.32   21.33</time>
   <energy>
    <i name="e_fr_energy">   -700.17601448 </i>
    <i name="e_wo_entrp">   -700.17601448 </i>
    <i name="e_0_energy">   -700.17601448 </i>
   </energy>
  </scstep>
  <scstep>
   <time name="total">   21.11   21.13</time>
   <energy>
    <i name="e_fr_energy">   -700.17764180 </i>
    <i name="e_wo_entrp">   -700.17764180 </i>
    <i name="e_0_energy">   -700.17764180 </i>
   </energy>
  </scstep>
  <scstep>
   <time name="total">   21.24   21.26</time>
   <energy>
    <i name="e_fr_energy">   -700.17769808 </i>
    <i name="e_wo_entrp">   -700.17769808 </i>
    <i name="e_0_energy">   -700.17769808 </i>
   </energy>
  </scstep>
  <scstep>
   <time name="total">   21.04   21.05</time>
   <energy>
    <i name="e_fr_energy">   -700.17742163 </i>
    <i name="e_wo_entrp">   -700.17742163 </i>
    <i name="e_0_energy">   -700.17742163 </i>
   </energy>
  </scstep>
  <scstep>
   <time name="total">   21.01   21.03</time>
   <energy>
    <i name="e_fr_energy">   -700.17792646 </i>
    <i name="e_wo_entrp">   -700.17792646 </i>
    <i name="e_0_energy">   -700.17792646 </i>
   </energy>
  </scstep>
  <scstep>
   <time name="total">   20.94   20.95</time>
   <energy>
    <i name="e_fr_energy">   -700.17714981 </i>
[...]
       <r>     9.3131   105.6387   248.1506 </r>
       <r>     9.4928   149.8456   264.0062 </r>
       <r>     9.6724    80.5678   282.5219 </r>
       <r>     9.8521     0.0000   288.0000 </r>
       <r>    10.0318     0.0000   288.0000 </r>
       <r>    10.2115     0.0000   288.0000 </r>
       <r>    10.3911     0.0000   288.0000 </r>
       <r>    10.5708     0.0000   288.0000 </r>
       <r>    10.7505     0.0000   288.0000 </r>
       <r>    10.9302     0.0000   288.0000 </r>
       <r>    11.1099     0.0000   288.0000 </r>
       <r>    11.2895     0.0000   288.0000 </r>
       <r>    11.4692     0.0000   288.0000 </r>
       <r>    11.6489     0.0000   288.0000 </r>
       <r>    11.8286     0.0000   288.0000 </r>
       <r>    12.0082     0.0000   288.0000 </r>
       <r>    12.1879     0.0000   288.0000 </r>
      </set>
      <set comment="spin 2">
       <r>   -41.7150     0.0000     0.0000 </r>
       <r>   -41.5353     0.0000     0.0000 </r>
       <r>   -41.3557     0.0000     0.0000 </r>
       <r>   -41.1760     0.0000     0.0000 </r>
       <r>   -40.9963     0.0000     0.0000 </r>
       <r>   -40.8166     0.0000     0.0000 </r>
       <r>   -40.6369     0.0000     0.0000 </r>
       <r>   -40.4573     0.0000     0.0000 </r>
       <r>   -40.2776     0.0000     0.0000 </r>
       <r>   -40.0979     0.0000     0.0000 </r>
       <r>   -39.9182     0.0000     0.0000 </r>
       <r>   -39.7386     0.0000     0.0000 </r>
       <r>   -39.5589     0.0000     0.0000 </r>
       <r>   -39.3792     0.0000     0.0000 </r>
       <r>   -39.1995     0.0000     1.0000 </r>
       <r>   -39.0199     0.0000     3.0000 </r>
       <r>   -38.8402     0.0000     3.0000 </r>
       <r>   -38.6605     0.0000     3.0000 </r>
       <r>   -38.4808     0.0000     3.0000 </r>
       <r>   -38.3012     0.0000     3.0000 </r>
       <r>   -38.1215     0.0000     3.0000 </r>
       <r>   -37.9418     0.0000     3.0000 </r>
       <r>   -37.7621     0.0000     3.0000 </r>
       <r>   -37.5825     0.0000     3.0000 </r>
       <r>   -37.4028     0.0000     3.0000 </r>
       <r>   -37.2231     0.0000     3.0000 </r>
       <r>   -37.0434     0.0000     3.0000 </r>
       <r>   -36.8637     0.0000     3.0000 </r>
       <r>   -36.6841     0.0000     3.0000 </r>
       <r>   -36.5044     0.0000     3.0000 </r>
       <r>   -36.3247     0.0000     3.0000 </r>
       <r>   -36.1450     0.0000     3.0000 </r>
       <r>   -35.9654     0.0000     3.0000 </r>
       <r>   -35.7857     0.0000     3.0000 </r>
       <r>   -35.6060     0.0000     3.0000 </r>
       <r>   -35.4263     0.0000     3.0000 </r>
       <r>   -35.2467     0.0000     3.0000 </r>
       <r>   -35.0670     0.0000     3.0000 </r>
       <r>   -34.8873     0.0000     3.0000 </r>
       <r>   -34.7076     0.0000     3.0000 </r>
       <r>   -34.5280     0.0000     3.0000 </r>
       <r>   -34.3483     0.0000     3.0000 </r>
       <r>   -34.1686     0.0000     3.0000 </r>
       <r>   -33.9889     0.0000     3.0000 </r>
       <r>   -33.8092     0.0000     3.0000 </r>
       <r>   -33.6296     0.0000     3.0000 </r>
       <r>   -33.4499     0.0000     3.0000 </r>
       <r>   -33.2702     0.0000     3.0000 </r>
       <r>   -33.0905     0.0000     3.0000 </r>
       <r>   -32.9109     0.0000     3.0000 </r>
       <r>   -32.7312     0.0000     3.0000 </r>
       <r>   -32.5515     0.0000     3.0000 </r>
       <r>   -32.3718     0.0000     3.0000 </r>
       <r>   -32.1922     0.0000     3.0000 </r>
       <r>   -32.0125     0.0000     3.0000 </r>
       <r>   -31.8328     0.0000     3.0000 </r>
       <r>   -31.6531     0.0000     3.0000 </r>
       <r>   -31.4735     0.0000     3.0000 </r>
       <r>   -31.2938     0.0000     3.0000 </r>
       <r>   -31.1141     0.0000     3.0000 </r>
       <r>   -30.9344     0.0000     3.0000 </r>
       <r>   -30.7547     0.0000     3.0000 </r>
       <r>   -30.5751     0.0000     3.0000 </r>
       <r>   -30.3954     0.0000     3.0000 </r>
       <r>   -30.2157     0.0000     3.0000 </r>
       <r>   -30.0360     0.0000     3.0000 </r>
       <r>   -29.8564     0.0000     3.0000 </r>
       <r>   -29.6767     0.0000     3.0000 </r>
       <r>   -29.4970     0.0000     3.0000 </r>
       <r>   -29.3173     0.0000     3.0000 </r>
       <r>   -29.1377     0.0000     3.0000 </r>
       <r>   -28.9580     0.0000     3.0000 </r>
       <r>   -28.7783     0.0000     3.0000 </r>
       <r>   -28.5986     0.0000     3.0000 </r>
       <r>   -28.4190     0.0000     3.0000 </r>
       <r>   -28.2393     0.0000     3.0000 </r>
       <r>   -28.0596     0.0000    20.0000 </r>
       <r>   -27.8799     0.0000    39.0000 </r>
       <r>   -27.7002     0.0000    39.0000 </r>
       <r>   -27.5206     0.0000    39.0000 </r>
       <r>   -27.3409     0.0000    39.0000 </r>
       <r>   -27.1612     0.0000    39.0000 </r>
       <r>   -26.9815     0.0000    39.0000 </r>
       <r>   -26.8019     0.0000    39.0000 </r>
       <r>   -26.6222     0.0000    39.0000 </r>
       <r>   -26.4425     0.0000    39.0000 </r>
       <r>   -26.2628     0.0000    39.0000 </r>
       <r>   -26.0832     0.0000    39.0000 </r>
       <r>   -25.9035     0.0000    39.0000 </r>
       <r>   -25.7238     0.0000    39.0000 </r>
       <r>   -25.5441     0.0000    41.0000 </r>
       <r>   -25.3645     0.0000    44.0000 </r>
       <r>   -25.1848     0.0000    46.0000 </r>
       <r>   -25.0051     0.0000    46.0000 </r>
       <r>   -24.8254     0.0000    46.0000 </r>
       <r>   -24.6458     0.0000    46.0000 </r>
       <r>   -24.4661     0.0000    46.0000 </r>
       <r>   -24.2864     0.0000    46.0000 </r>
       <r>   -24.1067     0.0000    46.0000 </r>
       <r>   -23.9270     0.0000    46.0000 </r>
       <r>   -23.7474     0.0000    46.0000 </r>
       <r>   -23.5677     0.0000    46.0000 </r>
       <r>   -23.3880     0.0000    46.0000 </r>
       <r>   -23.2083     0.0000    46.0000 </r>
       <r>   -23.0287     0.0000    46.0000 </r>
       <r>   -22.8490     0.0000    46.0000 </r>
       <r>   -22.6693     0.0000    46.0000 </r>
       <r>   -22.4896     0.0000    46.0000 </r>
       <r>   -22.3100     0.0000    46.0000 </r>
       <r>   -22.1303     0.0000    46.0000 </r>
       <r>   -21.9506     0.0000    46.0000 </r>
       <r>   -21.7709     0.0000    46.0000 </r>
       <r>   -21.5913     0.0000    46.0000 </r>
       <r>   -21.4116     0.0000    46.0000 </r>
       <r>   -21.2319     0.0000    46.0000 </r>
       <r>   -21.0522     0.0000    46.0000 </r>
       <r>   -20.8725     0.0000    46.0000 </r>
       <r>   -20.6929     0.0000    46.0000 </r>
       <r>   -20.5132     0.0000    46.0000 </r>
       <r>   -20.3335     0.0000    46.0000 </r>
       <r>   -20.1538     0.0000    46.0000 </r>
       <r>   -19.9742     0.0000    46.0000 </r>
       <r>   -19.7945     0.0000    46.0000 </r>
       <r>   -19.6148     0.0000    46.0000 </r>
       <r>   -19.4351     0.0000    46.0000 </r>
       <r>   -19.2555     0.0000    46.0000 </r>
       <r>   -19.0758     0.0000    46.0000 </r>
       <r>   -18.8961     0.0000    46.0000 </r>
       <r>   -18.7164     0.0000    46.0000 </r>
       <r>   -18.5368     0.0000    46.0000 </r>
       <r>   -18.3571     0.0000    46.0000 </r>
       <r>   -18.1774     0.0000    46.0000 </r>
       <r>   -17.9977     0.0000    46.0000 </r>
       <r>   -17.8180     0.0000    46.0000 </r>
       <r>   -17.6384     0.0000    46.0000 </r>
       <r>   -17.4587     0.0000    46.0000 </r>
       <r>   -17.2790     0.0000    46.0000 </r>
       <r>   -17.0993     0.0000    46.0000 </r>
       <r>   -16.9197     0.0000    46.0000 </r>
       <r>   -16.7400     0.0000    46.0000 </r>
       <r>   -16.5603     0.0000    46.0000 </r>
       <r>   -16.3806     0.0000    46.0000 </r>
       <r>   -16.2010     0.0000    46.0000 </r>
       <r>   -16.0213     0.0000    46.0000 </r>
       <r>   -15.8416     0.0000    46.0000 </r>
       <r>   -15.6619     0.0000    46.0000 </r>
       <r>   -15.4823     0.0000    46.0000 </r>
       <r>   -15.3026     0.0000    46.0000 </r>
       <r>   -15.1229     0.0000    46.0000 </r>
       <r>   -14.9432     0.0000    46.0000 </r>
       <r>   -14.7635     0.0000    46.0000 </r>
       <r>   -14.5839     0.0000    46.0000 </r>
       <r>   -14.4042     0.0000    46.0000 </r>
       <r>   -14.2245     0.0000    46.0000 </r>
       <r>   -14.0448     0.0000    46.0000 </r>
       <r>   -13.8652     0.0000    46.0000 </r>
       <r>   -13.6855     0.0000    46.0000 </r>
       <r>   -13.5058     0.0000    46.0000 </r>
       <r>   -13.3261     0.0000    46.0000 </r>
       <r>   -13.1465     0.0000    46.0000 </r>
       <r>   -12.9668     3.6351    47.4284 </r>
       <r>   -12.7871     8.1747    48.1548 </r>
       <r>   -12.6074     9.2444    51.4469 </r>
       <r>   -12.4278     4.3247    53.4523 </r>
       <r>   -12.2481    17.7133    54.6521 </r>
       <r>   -12.0684    17.5575    59.7807 </r>
       <r>   -11.8887    31.9724    63.1660 </r>
       <r>   -11.7091    11.1423    66.4068 </r>
       <r>   -11.5294    36.4049    73.5279 </r>
       <r>   -11.3497    47.2917    80.7308 </r>
       <r>   -11.1700     0.0000    82.0000 </r>
       <r>   -10.9903     0.0000    82.0000 </r>
       <r>   -10.8107     0.0000    82.0000 </r>
       <r>   -10.6310     0.0000    82.0000 </r>
       <r>   -10.4513     0.0000    82.0000 </r>
       <r>   -10.2716     0.0000    82.0000 </r>
       <r>   -10.0920     0.0000    82.0000 </r>
       <r>    -9.9123     0.0000    82.0000 </r>
       <r>    -9.7326     0.0000    82.0000 </r>
       <r>    -9.5529     0.0000    82.0000 </r>
       <r>    -9.3733     0.0000    82.0000 </r>
       <r>    -9.1936     8.0013    82.8501 </r>
       <r>    -9.0139    16.5869    86.6086 </r>
       <r>    -8.8342    30.6116    90.7357 </r>
       <r>    -8.6546    20.6760    94.5319 </r>
       <r>    -8.4749    18.3370    98.1469 </r>
       <r>    -8.2952     6.2332   101.3961 </r>
       <r>    -8.1155     0.0000   103.0000 </r>
       <r>    -7.9358     0.0000   103.0000 </r>
       <r>    -7.7562     0.0000   103.0000 </r>
       <r>    -7.5765     0.0000   103.0000 </r>
       <r>    -7.3968     0.0000   103.0000 </r>
       <r>    -7.2171     0.0000   103.0000 </r>
       <r>    -7.0375     0.0000   103.0000 </r>
       <r>    -6.8578     0.0000   103.0000 </r>
       <r>    -6.6781     0.0000   103.0000 </r>
       <r>    -6.4984     0.0000   103.0000 </r>
       <r>    -6.3188     0.0000   103.0000 </r>
       <r>    -6.1391     0.0000   103.0000 </r>
       <r>    -5.9594     0.0000   103.0000 </r>
       <r>    -5.7797     0.0000   103.0000 </r>
       <r>    -5.6001     0.0000   103.0000 </r>
       <r>    -5.4204     0.0000   103.0000 </r>
       <r>    -5.2407     0.0000   103.0000 </r>
       <r>    -5.0610     0.0000   103.0000 </r>
       <r>    -4.8813     0.0000   103.0000 </r>
       <r>    -4.7017     0.0000   103.0000 </r>
       <r>    -4.5220     0.0000   103.0000 </r>
       <r>    -4.3423     0.0000   103.0000 </r>
       <r>    -4.1626     0.0000   103.0000 </r>
       <r>    -3.9830     0.0000   103.0000 </r>
       <r>    -3.8033     0.0000   103.0000 </r>
       <r>    -3.6236     0.0000   103.0000 </r>
       <r>    -3.4439     0.0000   103.0000 </r>
       <r>    -3.2643     0.0000   103.0000 </r>
       <r>    -3.0846     0.0000   103.0000 </r>
       <r>    -2.9049     0.0000   103.0000 </r>
       <r>    -2.7252     0.0000   103.0000 </r>
       <r>    -2.5456     0.0000   103.0000 </r>
       <r>    -2.3659     0.0000   103.0000 </r>
       <r>    -2.1862     0.0000   103.0000 </r>
       <r>    -2.0065     0.0000   103.0000 </r>
       <r>    -1.8268     0.0000   103.0000 </r>
       <r>    -1.6472     0.0000   103.0000 </r>
       <r>    -1.4675     0.0000   103.0000 </r>
       <r>    -1.2878     0.0000   103.0000 </r>
       <r>    -1.1081     0.0000   103.0000 </r>
       <r>    -0.9285     0.0000   103.0000 </r>
       <r>    -0.7488     0.0000   103.0000 </r>
       <r>    -0.5691     0.0000   103.0000 </r>
       <r>    -0.3894     0.0000   103.0000 </r>
       <r>    -0.2098     0.0000   103.0000 </r>
       <r>    -0.0301     0.0000   103.0000 </r>
       <r>     0.1496     8.7200   103.1930 </r>
       <r>     0.3293    21.1769   106.6151 </r>
       <r>     0.5089    23.8893   110.5052 </r>
       <r>     0.6886    28.0349   115.1540 </r>
       <r>     0.8683    24.1579   119.9236 </r>
       <r>     1.0480     6.8919   123.0146 </r>
       <r>     1.2277    28.0364   127.2740 </r>
       <r>     1.4073    32.7795   132.8930 </r>
       <r>     1.5870    27.7952   138.1835 </r>
       <r>     1.7667    17.4432   143.7881 </r>
       <r>     1.9464    47.5985   149.1861 </r>
       <r>     2.1260    36.5753   154.1544 </r>
       <r>     2.3057    23.7084   158.5669 </r>
       <r>     2.4854    30.8369   163.2426 </r>
       <r>     2.6651    14.4396   166.0013 </r>
       <r>     2.8447    17.7089   169.0282 </r>
       <r>     3.0244    22.4582   171.9973 </r>
       <r>     3.2041    26.3143   176.2500 </r>
       <r>     3.3838    18.9655   180.3457 </r>
       <r>     3.5634    33.5463   185.0904 </r>
       <r>     3.7431    28.8756   190.4781 </r>
       <r>     3.9228    32.5596   195.8046 </r>
       <r>     4.1025    23.5810   201.3126 </r>
       <r>     4.2821    17.7380   205.2367 </r>
       <r>     4.4618    11.5996   209.0408 </r>
       <r>     4.6415     0.0000   211.0000 </r>
       <r>     4.8212     0.0000   211.0000 </r>
       <r>     5.0009     0.0000   211.0000 </r>
       <r>     5.1805     0.0000   211.0000 </r>
       <r>     5.3602     0.0000   211.0000 </r>
       <r>     5.5399     0.0000   211.0000 </r>
       <r>     5.7196     0.0000   211.0000 </r>
       <r>     5.8992     0.0000   211.0000 </r>
       <r>     6.0789     0.0000   211.0000 </r>
       <r>     6.2586     0.0000   211.0000 </r>
       <r>     6.4383     0.0000   211.0000 </r>
       <r>     6.6179     0.0000   211.0000 </r>
       <r>     6.7976     0.0000   211.0000 </r>
       <r>     6.9773    13.8834   212.0025 </r>
       <r>     7.1570     6.3680   213.6349 </r>
       <r>     7.3366     7.3144   214.7709 </r>
       <r>     7.5163    10.5147   216.3883 </r>
       <r>     7.6960     9.9534   218.2984 </r>
       <r>     7.8757    19.8069   220.6797 </r>
       <r>     8.0554    28.9328   224.9522 </r>
       <r>     8.2350    44.7942   230.8790 </r>
       <r>     8.4147    21.9951   237.0292 </r>
       <r>     8.5944    25.0335   240.9848 </r>
       <r>     8.7741    15.7266   245.7144 </r>
       <r>     8.9537     0.0000   247.0000 </r>
       <r>     9.1334     0.0000   247.0000 </r>
       <r>     9.3131   105.6376   248.1506 </r>
       <r>     9.4928   149.8450   264.0062 </r>
       <r>     9.6724    80.5736   282.5218 </r>
       <r>     9.8521     0.0000   288.0000 </r>
       <r>    10.0318     0.0000   288.0000 </r>
       <r>    10.2115     0.0000   288.0000 </r>
       <r>    10.3911     0.0000   288.0000 </r>
       <r>    10.5708     0.0000   288.0000 </r>
       <r>    10.7505     0.0000   288.0000 </r>
       <r>    10.9302     0.0000   288.0000 </r>
       <r>    11.1099     0.0000   288.0000 </r>
       <r>    11.2895     0.0000   288.0000 </r>
       <r>    11.4692     0.0000   288.0000 </r>
       <r>    11.6489     0.0000   288.0000 </r>
       <r>    11.8286     0.0000   288.0000 </r>
       <r>    12.0082     0.0000   288.0000 </r>
       <r>    12.1879     0.0000   288.0000 </r>
      </set>
     </set>
    </array>
   </total>
  </dos>
 </calculation>
 <structure name="finalpos" >
  <crystal>
   <varray name="basis" >
    <v>      10.94816017       0.00000000       0.00000000 </v>
    <v>      -2.73704067       4.74069205       0.00000000 </v>
    <v>       0.00000000       0.00000000      13.40900040 </v>
   </varray>
   <i name="volume">    695.95200650 </i>
   <varray name="rec_basis" >
    <v>       0.09133955       0.05273493       0.00000000 </v>
    <v>       0.00000000       0.21093967       0.00000000 </v>
    <v>       0.00000000       0.00000000       0.07457677 </v>
   </varray>
  </crystal>
  <varray name="positions" >
   <v>       0.33536644       0.33950243       0.59258743 </v>
   <v>       0.83223851       0.33884023       0.58902509 </v>
   <v>       0.17580061       0.68441669       0.91682995 </v>
   <v>       0.67225245       0.67960558       0.92180792 </v>
   <v>       0.16941354       0.67458112       0.41574951 </v>
   <v>       0.66325633       0.66724778       0.41626969 </v>
   <v>       0.00650011       0.00757247       0.24484552 </v>
   <v>       0.51049062       0.01420210       0.80314205 </v>
   <v>       0.40283326       0.49058549       0.10486800 </v>
   <v>       0.90160827       0.46390419       0.06716551 </v>
   <v>       0.00799601       0.02497823       0.99856747 </v>
   <v>       0.51256506       0.02661823       0.01319495 </v>
   <v>       0.00153214       0.00853945       0.50545778 </v>
   <v>       0.49977864       0.00222190       0.50256439 </v>
   <v>       0.34404783       0.35040602       0.32499026 </v>
   <v>       0.82491167       0.33160804       0.32508121 </v>
   <v>       0.34077438       0.34372822       0.83779829 </v>
   <v>       0.84012688       0.34725155       0.83541811 </v>
   <v>       0.16870206       0.67652757       0.67644199 </v>
   <v>       0.66853967       0.67366728       0.67701443 </v>
   <v>       0.18482087       0.69400754       0.16323698 </v>
   <v>       0.67153716       0.66851363       0.16558805 </v>
   <v>       0.26148907       0.99995397       0.25280819 </v>
   <v>       0.77857506       0.98719642       0.25812984 </v>
   <v>       0.22310853       0.00206650       0.75048737 </v>
   <v>       0.71442168       0.99330724       0.75623726 </v>
   <v>       0.99917560       0.55423617       0.25624701 </v>
   <v>       0.50090912       0.55731348       0.25134825 </v>
   <v>       0.99579802       0.45203708       0.74902045 </v>
   <v>       0.49648744       0.43201026       0.74633103 </v>
   <v>       0.21823568       0.45855269       0.25859553 </v>
   <v>       0.72088058       0.45995503       0.25792699 </v>
   <v>       0.27923632       0.56408970       0.75187041 </v>
   <v>       0.77178837       0.54475524       0.75055846 </v>
   <v>       0.11605056       0.34683214       0.57829119 </v>
   <v>       0.61346629       0.35207210       0.57602717 </v>
   <v>       0.04890953       0.32770205       0.08859757 </v>
   <v>       0.54673149       0.35620736       0.07690667 </v>
   <v>       0.32756898       0.88820235       0.57975678 </v>
   <v>       0.82627044       0.88965065       0.57961793 </v>
   <v>       0.32749288       0.75245944       0.07423290 </v>
   <v>       0.83234210       0.75840715       0.08703134 </v>
   <v>       0.05768841       0.77053021       0.57529790 </v>
   <v>       0.55748753       0.78137645       0.58226049 </v>
   <v>       0.10360591       0.87009964       0.08503164 </v>
   <v>       0.61339716       0.88678267       0.07981686 </v>
   <v>       0.45195640       0.67864631       0.91153088 </v>
   <v>       0.94307359       0.65605566       0.92448309 </v>
   <v>       0.38658649       0.65098039       0.42667098 </v>
   <v>       0.88411693       0.66654542       0.41893883 </v>
   <v>       0.17176052       0.22799523       0.92217764 </v>
   <v>       0.66298321       0.22802727       0.91714074 </v>
   <v>       0.15775343       0.10820308       0.41402215 </v>
   <v>       0.67189675       0.11872614       0.42543473 </v>
   <v>       0.39260634       0.10745169       0.91083958 </v>
   <v>       0.88956175       0.11610223       0.92164185 </v>
   <v>       0.43394635       0.22000858       0.42302712 </v>
   <v>       0.94293236       0.22918692       0.42053752 </v>
  </varray>
 </structure>
</modeling>
