       N       E                     dE             d eps       ncg     rms          rms(c)
DAV:   1     0.442656914884E+04    0.44266E+04   -0.84260E+04 28336   0.176E+03
DAV:   2     0.847530058995E+03   -0.35790E+04   -0.32291E+04 26696   0.528E+02
DAV:   3    -0.192224921793E+03   -0.10398E+04   -0.95092E+03 28448   0.258E+02
DAV:   4    -0.339176879895E+03   -0.14695E+03   -0.14470E+03 38208   0.105E+02
DAV:   5    -0.345128242502E+03   -0.59514E+01   -0.59160E+01 41392   0.255E+01    0.112E+02
DAV:   6    -0.281622656485E+03    0.63506E+02   -0.41887E+02 40360   0.889E+01    0.106E+02
DAV:   7    -0.306826308010E+03   -0.25204E+02   -0.89605E+01 34024   0.319E+01    0.657E+01
DAV:   8    -0.310303129870E+03   -0.34768E+01   -0.11581E+01 36112   0.115E+01    0.314E+01
DAV:   9    -0.311809507042E+03   -0.15064E+01   -0.62411E+00 34216   0.797E+00    0.933E+00
DAV:  10    -0.311621763208E+03    0.18774E+00   -0.23685E+00 34312   0.675E+00    0.482E+00
DAV:  11    -0.311488006874E+03    0.13376E+00   -0.69021E-01 33664   0.298E+00    0.296E+00
DAV:  12    -0.311493308716E+03   -0.53018E-02   -0.13992E-01 36864   0.120E+00    0.234E+00
DAV:  13    -0.311501067214E+03   -0.77585E-02   -0.27277E-02 32200   0.832E-01    0.150E+00
DAV:  14    -0.311505646652E+03   -0.45794E-02   -0.12282E-02 32744   0.489E-01    0.920E-01
DAV:  15    -0.311507367532E+03   -0.17209E-02   -0.86693E-03 34016   0.340E-01    0.503E-01
DAV:  16    -0.311506836332E+03    0.53120E-03   -0.23009E-03 32248   0.218E-01    0.282E-01
DAV:  17    -0.311506819598E+03    0.16733E-04   -0.80114E-04 40728   0.934E-02    0.147E-01
DAV:  18    -0.311506828803E+03   -0.92047E-05   -0.13974E-04 35512   0.385E-02    0.914E-02
DAV:  19    -0.311506827197E+03    0.16067E-05   -0.43345E-05 30024   0.307E-02
   1 F= -.31150683E+03 E0= -.31150683E+03  d E =0.000000E+00  mag=     1.3117
