       N       E                     dE             d eps       ncg     rms          rms(c)
DAV:   1    -0.718529278592E+03   -0.71853E+03   -0.46734E+03 39952   0.182E+02    0.170E+02
DAV:   2    -0.789363765979E+03   -0.70834E+02   -0.13196E+04 41232   0.118E+03    0.146E+02
DAV:   3    -0.536383526688E+03    0.25298E+03   -0.19504E+03 45112   0.234E+02    0.869E+01
DAV:   4    -0.426080659054E+03    0.11030E+03   -0.50275E+02 44880   0.824E+01    0.616E+01
DAV:   5    -0.383480797563E+03    0.42600E+02   -0.14357E+02 43392   0.416E+01    0.425E+01
DAV:   6    -0.359614290212E+03    0.23867E+02   -0.41092E+01 46288   0.212E+01    0.323E+01
DAV:   7    -0.336810253825E+03    0.22804E+02   -0.17878E+01 43656   0.138E+01    0.199E+01
DAV:   8    -0.323787296434E+03    0.13023E+02   -0.36431E+01 40896   0.163E+01    0.101E+01
DAV:   9    -0.323387034174E+03    0.40026E+00   -0.13743E+01 45824   0.109E+01    0.625E+00
DAV:  10    -0.323499092180E+03   -0.11206E+00   -0.26141E+00 45672   0.491E+00    0.539E+00
DAV:  11    -0.323465553063E+03    0.33539E-01   -0.74594E-01 41760   0.299E+00    0.328E+00
DAV:  12    -0.323482219320E+03   -0.16666E-01   -0.36734E-01 45872   0.247E+00    0.169E+00
DAV:  13    -0.323507236660E+03   -0.25017E-01   -0.16941E-01 40912   0.147E+00    0.970E-01
DAV:  14    -0.323508961169E+03   -0.17245E-02   -0.38431E-02 42800   0.865E-01    0.742E-01
DAV:  15    -0.323508713264E+03    0.24790E-03   -0.90886E-03 44216   0.368E-01    0.471E-01
DAV:  16    -0.323508107241E+03    0.60602E-03   -0.58166E-03 44384   0.359E-01    0.232E-01
DAV:  17    -0.323508681035E+03   -0.57379E-03   -0.23164E-03 39728   0.196E-01    0.188E-01
DAV:  18    -0.323508621028E+03    0.60007E-04   -0.70614E-04 44664   0.145E-01    0.117E-01
DAV:  19    -0.323508688055E+03   -0.67027E-04   -0.23368E-04 37560   0.587E-02    0.831E-02
DAV:  20    -0.323508702106E+03   -0.14051E-04   -0.69607E-05 31832   0.465E-02    0.424E-02
DAV:  21    -0.323508705520E+03   -0.34141E-05   -0.16943E-05 22752   0.282E-02
   1 F= -.32350871E+03 E0= -.32350871E+03  d E =-.323509E+03  mag=     0.0000
       N       E                     dE             d eps       ncg     rms          rms(c)
DAV:   1    -0.284294113672E+03    0.39215E+02   -0.14608E+03 30248   0.137E+02    0.315E+01
DAV:   2    -0.322466209909E+03   -0.38172E+02   -0.41807E+02 38792   0.674E+01    0.198E+01
DAV:   3    -0.324399720969E+03   -0.19335E+01   -0.33730E+01 40984   0.183E+01    0.134E+01
DAV:   4    -0.324650949188E+03   -0.25123E+00   -0.92181E+00 46608   0.790E+00    0.105E+01
DAV:   5    -0.324726369158E+03   -0.75420E-01   -0.34181E+00 44336   0.450E+00    0.555E+00
DAV:   6    -0.324731544839E+03   -0.51757E-02   -0.76944E-01 44352   0.275E+00    0.250E+00
DAV:   7    -0.324741636774E+03   -0.10092E-01   -0.19331E-01 44224   0.143E+00    0.113E+00
DAV:   8    -0.324744013670E+03   -0.23769E-02   -0.48027E-02 47720   0.650E-01    0.727E-01
DAV:   9    -0.324743838545E+03    0.17512E-03   -0.10053E-02 43880   0.315E-01    0.376E-01
DAV:  10    -0.324743712979E+03    0.12557E-03   -0.21811E-03 45640   0.175E-01    0.171E-01
DAV:  11    -0.324743724323E+03   -0.11344E-04   -0.71029E-04 45288   0.935E-02    0.789E-02
DAV:  12    -0.324743741530E+03   -0.17207E-04   -0.21929E-04 42560   0.457E-02    0.487E-02
DAV:  13    -0.324743743773E+03   -0.22429E-05   -0.29945E-05 22336   0.243E-02
   2 F= -.32474374E+03 E0= -.32474374E+03  d E =-.123504E+01  mag=     0.0000
       N       E                     dE             d eps       ncg     rms          rms(c)
DAV:   1    -0.321190817085E+03    0.35529E+01   -0.45949E+02 28356   0.729E+01    0.126E+01
DAV:   2    -0.326110170463E+03   -0.49194E+01   -0.54919E+01 40352   0.263E+01    0.106E+01
DAV:   3    -0.326651753916E+03   -0.54158E+00   -0.64046E+00 46816   0.724E+00    0.711E+00
DAV:   4    -0.326687696494E+03   -0.35943E-01   -0.12221E+00 42512   0.325E+00    0.544E+00
DAV:   5    -0.326669151198E+03    0.18545E-01   -0.24538E-01 38288   0.209E+00    0.219E+00
DAV:   6    -0.326679732547E+03   -0.10581E-01   -0.10553E-01 43512   0.102E+00    0.941E-01
DAV:   7    -0.326679646012E+03    0.86536E-04   -0.42362E-02 45256   0.656E-01    0.639E-01
DAV:   8    -0.326678653596E+03    0.99242E-03   -0.60081E-03 43400   0.270E-01    0.442E-01
DAV:   9    -0.326677624641E+03    0.10290E-02   -0.25757E-03 39720   0.201E-01    0.200E-01
DAV:  10    -0.326677656353E+03   -0.31712E-04   -0.13820E-03 39344   0.125E-01    0.101E-01
DAV:  11    -0.326677717715E+03   -0.61362E-04   -0.57219E-04 45248   0.644E-02    0.610E-02
DAV:  12    -0.326677726568E+03   -0.88526E-05   -0.19844E-04 34416   0.371E-02    0.389E-02
DAV:  13    -0.326677729895E+03   -0.33278E-05   -0.26169E-05 20640   0.212E-02
   3 F= -.32667773E+03 E0= -.32667773E+03  d E =-.316902E+01  mag=    -0.0000
       N       E                     dE             d eps       ncg     rms          rms(c)
DAV:   1    -0.325345345185E+03    0.13324E+01   -0.13951E+02 24064   0.456E+01    0.689E+00
DAV:   2    -0.327169707939E+03   -0.18244E+01   -0.19859E+01 37656   0.175E+01    0.581E+00
DAV:   3    -0.327257476914E+03   -0.87769E-01   -0.13773E+00 38752   0.436E+00    0.315E+00
DAV:   4    -0.327266067723E+03   -0.85908E-02   -0.27596E-01 44864   0.199E+00    0.276E+00
DAV:   5    -0.327256966867E+03    0.91009E-02   -0.65758E-02 37128   0.101E+00    0.138E+00
DAV:   6    -0.327256854753E+03    0.11211E-03   -0.20583E-02 40656   0.640E-01    0.611E-01
DAV:   7    -0.327257206238E+03   -0.35148E-03   -0.10728E-02 39960   0.403E-01    0.483E-01
DAV:   8    -0.327257282824E+03   -0.76586E-04   -0.19985E-03 46776   0.156E-01    0.314E-01
DAV:   9    -0.327257206592E+03    0.76232E-04   -0.87804E-04 35984   0.131E-01    0.111E-01
DAV:  10    -0.327257211335E+03   -0.47427E-05   -0.26392E-04 40512   0.726E-02    0.644E-02
DAV:  11    -0.327257202423E+03    0.89116E-05   -0.29732E-05 22200   0.282E-02
   4 F= -.32725720E+03 E0= -.32725720E+03  d E =-.579473E+00  mag=     0.0000
       N       E                     dE             d eps       ncg     rms          rms(c)
DAV:   1    -0.327090412797E+03    0.16680E+00   -0.15633E+01 24080   0.151E+01    0.224E+00
DAV:   2    -0.327290912901E+03   -0.20050E+00   -0.21530E+00 38296   0.577E+00    0.187E+00
DAV:   3    -0.327294863610E+03   -0.39507E-02   -0.99276E-02 37920   0.138E+00    0.983E-01
DAV:   4    -0.327294623365E+03    0.24024E-03   -0.18038E-02 43936   0.621E-01    0.889E-01
DAV:   5    -0.327293505305E+03    0.11181E-02   -0.48189E-03 37968   0.309E-01    0.434E-01
DAV:   6    -0.327293513277E+03   -0.79717E-05   -0.20275E-03 41456   0.201E-01    0.190E-01
DAV:   7    -0.327293540236E+03   -0.26959E-04   -0.10749E-03 39160   0.133E-01    0.154E-01
DAV:   8    -0.327293550424E+03   -0.10188E-04   -0.22082E-04 44944   0.520E-02    0.105E-01
DAV:   9    -0.327293539488E+03    0.10936E-04   -0.88281E-05 30120   0.448E-02    0.386E-02
DAV:  10    -0.327293538804E+03    0.68436E-06   -0.17842E-05 18584   0.260E-02
   5 F= -.32729354E+03 E0= -.32729354E+03  d E =-.615809E+00  mag=    -0.0000
       N       E                     dE             d eps       ncg     rms          rms(c)
DAV:   1    -0.326889583315E+03    0.40396E+00   -0.84944E+01 24064   0.285E+01    0.377E+00
DAV:   2    -0.327633071575E+03   -0.74349E+00   -0.79407E+00 39488   0.105E+01    0.226E+00
DAV:   3    -0.327699188743E+03   -0.66117E-01   -0.79041E-01 43640   0.238E+00    0.146E+00
DAV:   4    -0.327709011880E+03   -0.98231E-02   -0.16130E-01 44912   0.964E-01    0.120E+00
DAV:   5    -0.327708380183E+03    0.63170E-03   -0.34469E-02 40968   0.487E-01    0.666E-01
DAV:   6    -0.327707101542E+03    0.12786E-02   -0.74166E-03 39560   0.310E-01    0.253E-01
DAV:   7    -0.327707449555E+03   -0.34801E-03   -0.36238E-03 44272   0.184E-01    0.143E-01
DAV:   8    -0.327707523059E+03   -0.73504E-04   -0.82797E-04 47032   0.871E-02    0.114E-01
DAV:   9    -0.327707512769E+03    0.10291E-04   -0.19720E-04 37744   0.485E-02    0.617E-02
DAV:  10    -0.327707513574E+03   -0.80583E-06   -0.51870E-05 24328   0.294E-02
   6 F= -.32770751E+03 E0= -.32770751E+03  d E =-.413975E+00  mag=     0.0000
       N       E                     dE             d eps       ncg     rms          rms(c)
DAV:   1    -0.324620040804E+03    0.30875E+01   -0.28533E+02 24368   0.536E+01    0.753E+00
DAV:   2    -0.327471683022E+03   -0.28516E+01   -0.30942E+01 39200   0.199E+01    0.438E+00
DAV:   3    -0.327923067999E+03   -0.45138E+00   -0.50343E+00 44024   0.469E+00    0.288E+00
DAV:   4    -0.328028592067E+03   -0.10552E+00   -0.12859E+00 45016   0.212E+00    0.235E+00
DAV:   5    -0.328035866934E+03   -0.72749E-02   -0.26796E-01 41384   0.104E+00    0.141E+00
DAV:   6    -0.328028256978E+03    0.76100E-02   -0.49655E-02 39104   0.630E-01    0.645E-01
DAV:   7    -0.328028761276E+03   -0.50430E-03   -0.13886E-02 40352   0.386E-01    0.228E-01
DAV:   8    -0.328029266712E+03   -0.50544E-03   -0.48884E-03 47008   0.216E-01    0.239E-01
DAV:   9    -0.328029210706E+03    0.56006E-04   -0.76050E-04 43128   0.866E-02    0.154E-01
DAV:  10    -0.328029183379E+03    0.27327E-04   -0.32768E-04 38696   0.624E-02    0.610E-02
DAV:  11    -0.328029189417E+03   -0.60376E-05   -0.16174E-04 35744   0.413E-02    0.334E-02
DAV:  12    -0.328029180902E+03    0.85147E-05   -0.19112E-05 19664   0.255E-02
   7 F= -.32802918E+03 E0= -.32802918E+03  d E =-.735642E+00  mag=    -0.0000
       N       E                     dE             d eps       ncg     rms          rms(c)
DAV:   1    -0.327328427239E+03    0.70076E+00   -0.96309E+01 24064   0.303E+01    0.430E+00
DAV:   2    -0.328222867145E+03   -0.89444E+00   -0.95718E+00 37296   0.108E+01    0.255E+00
DAV:   3    -0.328310739950E+03   -0.87873E-01   -0.10161E+00 42016   0.266E+00    0.154E+00
DAV:   4    -0.328322294061E+03   -0.11554E-01   -0.18624E-01 45568   0.120E+00    0.136E+00
DAV:   5    -0.328321240449E+03    0.10536E-02   -0.33850E-02 39704   0.483E-01    0.810E-01
DAV:   6    -0.328319443018E+03    0.17974E-02   -0.90392E-03 37568   0.376E-01    0.255E-01
DAV:   7    -0.328319805842E+03   -0.36282E-03   -0.39739E-03 42872   0.212E-01    0.198E-01
DAV:   8    -0.328319869818E+03   -0.63976E-04   -0.65241E-04 45848   0.865E-02    0.158E-01
DAV:   9    -0.328319853064E+03    0.16755E-04   -0.20285E-04 39216   0.575E-02    0.850E-02
DAV:  10    -0.328319857136E+03   -0.40722E-05   -0.65785E-05 27264   0.322E-02
   8 F= -.32831986E+03 E0= -.32831986E+03  d E =-.290676E+00  mag=     0.0000
       N       E                     dE             d eps       ncg     rms          rms(c)
DAV:   1    -0.327820414748E+03    0.49944E+00   -0.58364E+01 24064   0.233E+01    0.323E+00
DAV:   2    -0.328346868764E+03   -0.52645E+00   -0.55865E+00 37048   0.832E+00    0.190E+00
DAV:   3    -0.328385906226E+03   -0.39037E-01   -0.47087E-01 41640   0.194E+00    0.115E+00
DAV:   4    -0.328390084661E+03   -0.41784E-02   -0.83434E-02 44688   0.869E-01    0.104E+00
DAV:   5    -0.328389308202E+03    0.77646E-03   -0.15532E-02 40384   0.344E-01    0.613E-01
DAV:   6    -0.328388402155E+03    0.90605E-03   -0.47588E-03 36336   0.288E-01    0.181E-01
DAV:   7    -0.328388609125E+03   -0.20697E-03   -0.24068E-03 43400   0.163E-01    0.149E-01
DAV:   8    -0.328388640492E+03   -0.31367E-04   -0.36222E-04 45088   0.647E-02    0.121E-01
DAV:   9    -0.328388629346E+03    0.11146E-04   -0.10678E-04 34048   0.439E-02    0.655E-02
DAV:  10    -0.328388630422E+03   -0.10760E-05   -0.33515E-05 21344   0.263E-02
   9 F= -.32838863E+03 E0= -.32838863E+03  d E =-.359450E+00  mag=     0.0000
       N       E                     dE             d eps       ncg     rms          rms(c)
DAV:   1    -0.327795395756E+03    0.59323E+00   -0.80623E+01 24096   0.274E+01    0.333E+00
DAV:   2    -0.328557779264E+03   -0.76238E+00   -0.81036E+00 40552   0.114E+01    0.195E+00
DAV:   3    -0.328611757774E+03   -0.53979E-01   -0.62131E-01 43056   0.218E+00    0.123E+00
DAV:   4    -0.328616442597E+03   -0.46848E-02   -0.10840E-01 45688   0.102E+00    0.107E+00
DAV:   5    -0.328615770198E+03    0.67240E-03   -0.19761E-02 41992   0.421E-01    0.653E-01
DAV:   6    -0.328614683360E+03    0.10868E-02   -0.60479E-03 36440   0.318E-01    0.220E-01
DAV:   7    -0.328615009402E+03   -0.32604E-03   -0.32773E-03 44744   0.183E-01    0.146E-01
DAV:   8    -0.328615038027E+03   -0.28626E-04   -0.48154E-04 44496   0.756E-02    0.112E-01
DAV:   9    -0.328615009332E+03    0.28695E-04   -0.13410E-04 37808   0.486E-02    0.632E-02
DAV:  10    -0.328615007268E+03    0.20634E-05   -0.57316E-05 27800   0.298E-02
  10 F= -.32861501E+03 E0= -.32861501E+03  d E =-.226377E+00  mag=    -0.0000
       N       E                     dE             d eps       ncg     rms          rms(c)
DAV:   1    -0.327365285285E+03    0.12497E+01   -0.13031E+02 24824   0.350E+01    0.433E+00
DAV:   2    -0.328595950284E+03   -0.12307E+01   -0.13121E+01 40888   0.142E+01    0.251E+00
DAV:   3    -0.328707371504E+03   -0.11142E+00   -0.12371E+00 43312   0.274E+00    0.159E+00
DAV:   4    -0.328718459353E+03   -0.11088E-01   -0.20832E-01 45432   0.128E+00    0.138E+00
DAV:   5    -0.328716953112E+03    0.15062E-02   -0.34475E-02 41616   0.527E-01    0.832E-01
DAV:   6    -0.328714922667E+03    0.20304E-02   -0.98239E-03 37296   0.391E-01    0.278E-01
DAV:   7    -0.328715492987E+03   -0.57032E-03   -0.54539E-03 44904   0.226E-01    0.194E-01
DAV:   8    -0.328715526939E+03   -0.33952E-04   -0.80684E-04 45096   0.963E-02    0.152E-01
DAV:   9    -0.328715474639E+03    0.52300E-04   -0.19722E-04 42544   0.573E-02    0.956E-02
DAV:  10    -0.328715461460E+03    0.13179E-04   -0.97842E-05 30736   0.357E-02    0.449E-02
DAV:  11    -0.328715465438E+03   -0.39785E-05   -0.32966E-05 21648   0.247E-02
  11 F= -.32871547E+03 E0= -.32871547E+03  d E =-.326835E+00  mag=    -0.0000
       N       E                     dE             d eps       ncg     rms          rms(c)
DAV:   1    -0.328309612866E+03    0.40585E+00   -0.66133E+01 24128   0.231E+01    0.320E+00
DAV:   2    -0.328848040734E+03   -0.53843E+00   -0.56940E+00 39600   0.902E+00    0.185E+00
DAV:   3    -0.328883685213E+03   -0.35644E-01   -0.41994E-01 44192   0.180E+00    0.114E+00
DAV:   4    -0.328885235657E+03   -0.15504E-02   -0.63432E-02 44240   0.777E-01    0.926E-01
DAV:   5    -0.328884019709E+03    0.12159E-02   -0.11592E-02 39912   0.374E-01    0.500E-01
DAV:   6    -0.328883717148E+03    0.30256E-03   -0.38553E-03 39928   0.238E-01    0.176E-01
DAV:   7    -0.328883948805E+03   -0.23166E-03   -0.24165E-03 45048   0.149E-01    0.141E-01
DAV:   8    -0.328883966588E+03   -0.17783E-04   -0.30773E-04 41864   0.620E-02    0.101E-01
DAV:   9    -0.328883942868E+03    0.23720E-04   -0.11669E-04 36040   0.433E-02    0.578E-02
DAV:  10    -0.328883943755E+03   -0.88697E-06   -0.34744E-05 22992   0.260E-02
  12 F= -.32888394E+03 E0= -.32888394E+03  d E =-.168478E+00  mag=     0.0000
       N       E                     dE             d eps       ncg     rms          rms(c)
DAV:   1    -0.328103238972E+03    0.78070E+00   -0.94993E+01 24128   0.280E+01    0.392E+00
DAV:   2    -0.328898943306E+03   -0.79570E+00   -0.84503E+00 40448   0.110E+01    0.223E+00
DAV:   3    -0.328960016251E+03   -0.61073E-01   -0.70628E-01 43632   0.217E+00    0.137E+00
DAV:   4    -0.328963369384E+03   -0.33531E-02   -0.10490E-01 44840   0.994E-01    0.112E+00
DAV:   5    -0.328961456927E+03    0.19125E-02   -0.17336E-02 39824   0.442E-01    0.616E-01
DAV:   6    -0.328960827509E+03    0.62942E-03   -0.60912E-03 39544   0.296E-01    0.217E-01
DAV:   7    -0.328961260937E+03   -0.43343E-03   -0.43872E-03 44896   0.185E-01    0.172E-01
DAV:   8    -0.328961294383E+03   -0.33446E-04   -0.58490E-04 42600   0.797E-02    0.125E-01
DAV:   9    -0.328961256980E+03    0.37403E-04   -0.15023E-04 38048   0.509E-02    0.770E-02
DAV:  10    -0.328961254093E+03    0.28869E-05   -0.57811E-05 26688   0.313E-02
  13 F= -.32896125E+03 E0= -.32896125E+03  d E =-.245789E+00  mag=     0.0000
       N       E                     dE             d eps       ncg     rms          rms(c)
DAV:   1    -0.328831852948E+03    0.12940E+00   -0.22948E+01 24096   0.159E+01    0.216E+00
DAV:   2    -0.329057309889E+03   -0.22546E+00   -0.23894E+00 38920   0.658E+00    0.138E+00
DAV:   3    -0.329065426242E+03   -0.81164E-02   -0.12097E-01 43080   0.127E+00    0.879E-01
DAV:   4    -0.329064784520E+03    0.64172E-03   -0.19935E-02 43984   0.566E-01    0.767E-01
DAV:   5    -0.329064225675E+03    0.55885E-03   -0.45637E-03 39432   0.271E-01    0.426E-01
DAV:   6    -0.329064033618E+03    0.19206E-03   -0.22382E-03 38392   0.193E-01    0.165E-01
DAV:   7    -0.329064138187E+03   -0.10457E-03   -0.13702E-03 41264   0.135E-01    0.988E-02
DAV:   8    -0.329064152190E+03   -0.14003E-04   -0.24769E-04 43232   0.583E-02    0.749E-02
DAV:   9    -0.329064128975E+03    0.23215E-04   -0.73761E-05 29256   0.376E-02    0.496E-02
DAV:  10    -0.329064128261E+03    0.71471E-06   -0.20280E-05 19888   0.224E-02
  14 F= -.32906413E+03 E0= -.32906413E+03  d E =-.102874E+00  mag=    -0.0000
       N       E                     dE             d eps       ncg     rms          rms(c)
DAV:   1    -0.328785593371E+03    0.27854E+00   -0.31956E+01 24064   0.188E+01    0.252E+00
DAV:   2    -0.329100121821E+03   -0.31453E+00   -0.33349E+00 38472   0.776E+00    0.163E+00
DAV:   3    -0.329113569710E+03   -0.13448E-01   -0.19041E-01 43184   0.155E+00    0.104E+00
DAV:   4    -0.329112980516E+03    0.58919E-03   -0.30877E-02 43696   0.695E-01    0.914E-01
DAV:   5    -0.329112282427E+03    0.69809E-03   -0.70180E-03 40496   0.326E-01    0.521E-01
DAV:   6    -0.329111935566E+03    0.34686E-03   -0.30930E-03 38136   0.232E-01    0.198E-01
DAV:   7    -0.329112083846E+03   -0.14828E-03   -0.19111E-03 41040   0.163E-01    0.115E-01
DAV:   8    -0.329112106432E+03   -0.22587E-04   -0.36734E-04 45072   0.708E-02    0.878E-02
DAV:   9    -0.329112075262E+03    0.31170E-04   -0.97931E-05 33296   0.413E-02    0.595E-02
DAV:  10    -0.329112072777E+03    0.24852E-05   -0.25575E-05 20680   0.246E-02
  15 F= -.32911207E+03 E0= -.32911207E+03  d E =-.150819E+00  mag=    -0.0000
       N       E                     dE             d eps       ncg     rms          rms(c)
DAV:   1    -0.329022293736E+03    0.89782E-01   -0.24095E+01 24064   0.150E+01    0.235E+00
DAV:   2    -0.329199406558E+03   -0.17711E+00   -0.18443E+00 39440   0.561E+00    0.123E+00
DAV:   3    -0.329205458446E+03   -0.60519E-02   -0.97002E-02 44176   0.105E+00    0.817E-01
DAV:   4    -0.329204473154E+03    0.98529E-03   -0.14859E-02 42328   0.459E-01    0.598E-01
DAV:   5    -0.329203881071E+03    0.59208E-03   -0.42347E-03 38320   0.264E-01    0.262E-01
DAV:   6    -0.329203914958E+03   -0.33887E-04   -0.17953E-03 43912   0.137E-01    0.110E-01
DAV:   7    -0.329203979234E+03   -0.64277E-04   -0.73705E-04 42416   0.858E-02    0.101E-01
DAV:   8    -0.329203984462E+03   -0.52280E-05   -0.12001E-04 32536   0.379E-02    0.641E-02
DAV:   9    -0.329203975062E+03    0.94006E-05   -0.53990E-05 26200   0.339E-02
  16 F= -.32920398E+03 E0= -.32920398E+03  d E =-.919023E-01  mag=    -0.0000
       N       E                     dE             d eps       ncg     rms          rms(c)
DAV:   1    -0.328678069019E+03    0.52592E+00   -0.75877E+01 24064   0.268E+01    0.417E+00
DAV:   2    -0.329251496934E+03   -0.57343E+00   -0.60014E+00 38984   0.998E+00    0.215E+00
DAV:   3    -0.329281648650E+03   -0.30152E-01   -0.41830E-01 43984   0.196E+00    0.145E+00
DAV:   4    -0.329280433910E+03    0.12147E-02   -0.67260E-02 43000   0.882E-01    0.106E+00
DAV:   5    -0.329278599790E+03    0.18341E-02   -0.16277E-02 38952   0.470E-01    0.491E-01
DAV:   6    -0.329278583681E+03    0.16109E-04   -0.62635E-03 42864   0.253E-01    0.190E-01
DAV:   7    -0.329278809987E+03   -0.22631E-03   -0.25484E-03 44280   0.157E-01    0.177E-01
DAV:   8    -0.329278840718E+03   -0.30731E-04   -0.42833E-04 41664   0.660E-02    0.114E-01
DAV:   9    -0.329278816234E+03    0.24484E-04   -0.18702E-04 35880   0.571E-02    0.486E-02
DAV:  10    -0.329278822220E+03   -0.59853E-05   -0.58526E-05 28104   0.299E-02
  17 F= -.32927882E+03 E0= -.32927882E+03  d E =-.166749E+00  mag=     0.0000
       N       E                     dE             d eps       ncg     rms          rms(c)
DAV:   1    -0.329267038931E+03    0.11777E-01   -0.18256E+00 24272   0.413E+00    0.627E-01
DAV:   2    -0.329279885902E+03   -0.12847E-01   -0.13345E-01 39552   0.156E+00    0.332E-01
DAV:   3    -0.329280288328E+03   -0.40243E-03   -0.69769E-03 43736   0.305E-01    0.218E-01
DAV:   4    -0.329280197346E+03    0.90982E-04   -0.83181E-04 42840   0.120E-01    0.165E-01
DAV:   5    -0.329280137496E+03    0.59850E-04   -0.29248E-04 37952   0.721E-02    0.716E-02
DAV:   6    -0.329280138766E+03   -0.12700E-05   -0.11734E-04 37144   0.378E-02    0.296E-02
DAV:   7    -0.329280140987E+03   -0.22209E-05   -0.25216E-05 20528   0.254E-02
  18 F= -.32928014E+03 E0= -.32928014E+03  d E =-.168068E+00  mag=     0.0000
       N       E                     dE             d eps       ncg     rms          rms(c)
DAV:   1    -0.329089771365E+03    0.19037E+00   -0.28974E+01 24064   0.177E+01    0.220E+00
DAV:   2    -0.329332264888E+03   -0.24249E+00   -0.25359E+00 38352   0.661E+00    0.118E+00
DAV:   3    -0.329341323533E+03   -0.90586E-02   -0.13194E-01 43936   0.126E+00    0.837E-01
DAV:   4    -0.329340816348E+03    0.50719E-03   -0.20008E-02 44576   0.526E-01    0.667E-01
DAV:   5    -0.329340536047E+03    0.28030E-03   -0.40491E-03 41672   0.230E-01    0.416E-01
DAV:   6    -0.329339945976E+03    0.59007E-03   -0.21175E-03 32688   0.213E-01    0.135E-01
DAV:   7    -0.329340035204E+03   -0.89228E-04   -0.10654E-03 42080   0.121E-01    0.761E-02
DAV:   8    -0.329340047203E+03   -0.12000E-04   -0.19182E-04 43680   0.508E-02    0.600E-02
DAV:   9    -0.329340037554E+03    0.96494E-05   -0.30371E-05 22272   0.281E-02
  19 F= -.32934004E+03 E0= -.32934004E+03  d E =-.598966E-01  mag=    -0.0000
       N       E                     dE             d eps       ncg     rms          rms(c)
DAV:   1    -0.329167239089E+03    0.17281E+00   -0.22558E+01 24064   0.156E+01    0.195E+00
DAV:   2    -0.329354083977E+03   -0.18684E+00   -0.19519E+00 38408   0.583E+00    0.106E+00
DAV:   3    -0.329360994409E+03   -0.69104E-02   -0.10177E-01 44192   0.113E+00    0.749E-01
DAV:   4    -0.329360554563E+03    0.43985E-03   -0.15358E-02 44536   0.464E-01    0.598E-01
DAV:   5    -0.329360322900E+03    0.23166E-03   -0.30316E-03 41848   0.206E-01    0.373E-01
DAV:   6    -0.329359867066E+03    0.45583E-03   -0.16046E-03 32256   0.189E-01    0.121E-01
DAV:   7    -0.329359940152E+03   -0.73087E-04   -0.86859E-04 41528   0.108E-01    0.686E-02
DAV:   8    -0.329359950356E+03   -0.10204E-04   -0.15921E-04 41784   0.462E-02    0.545E-02
DAV:   9    -0.329359942291E+03    0.80652E-05   -0.22758E-05 20704   0.255E-02
  20 F= -.32935994E+03 E0= -.32935994E+03  d E =-.798013E-01  mag=     0.0000
       N       E                     dE             d eps       ncg     rms          rms(c)
DAV:   1    -0.329224379581E+03    0.13557E+00   -0.21906E+01 24064   0.157E+01    0.212E+00
DAV:   2    -0.329406508025E+03   -0.18213E+00   -0.18787E+00 37880   0.553E+00    0.118E+00
DAV:   3    -0.329411933417E+03   -0.54254E-02   -0.91763E-02 43784   0.112E+00    0.784E-01
DAV:   4    -0.329411352040E+03    0.58138E-03   -0.13183E-02 42688   0.460E-01    0.624E-01
DAV:   5    -0.329410732055E+03    0.61999E-03   -0.34845E-03 39688   0.234E-01    0.313E-01
DAV:   6    -0.329410620151E+03    0.11190E-03   -0.13731E-03 39584   0.160E-01    0.118E-01
DAV:   7    -0.329410656463E+03   -0.36312E-04   -0.57283E-04 41192   0.104E-01    0.109E-01
DAV:   8    -0.329410667524E+03   -0.11061E-04   -0.11813E-04 39536   0.388E-02    0.859E-02
DAV:   9    -0.329410653541E+03    0.13984E-04   -0.65039E-05 27352   0.391E-02    0.366E-02
DAV:  10    -0.329410654388E+03   -0.84701E-06   -0.15030E-05 16928   0.224E-02
  21 F= -.32941065E+03 E0= -.32941065E+03  d E =-.507121E-01  mag=    -0.0000
       N       E                     dE             d eps       ncg     rms          rms(c)
DAV:   1    -0.329298247021E+03    0.11241E+00   -0.15092E+01 24064   0.130E+01    0.175E+00
DAV:   2    -0.329422419234E+03   -0.12417E+00   -0.12801E+00 37768   0.461E+00    0.999E-01
DAV:   3    -0.329425884013E+03   -0.34648E-02   -0.60218E-02 43840   0.926E-01    0.664E-01
DAV:   4    -0.329425427273E+03    0.45674E-03   -0.86173E-03 43056   0.375E-01    0.528E-01
DAV:   5    -0.329424989172E+03    0.43810E-03   -0.23493E-03 39600   0.194E-01    0.259E-01
DAV:   6    -0.329424929607E+03    0.59565E-04   -0.92483E-04 39680   0.129E-01    0.999E-02
DAV:   7    -0.329424951541E+03   -0.21934E-04   -0.37057E-04 40592   0.849E-02    0.926E-02
DAV:   8    -0.329424957291E+03   -0.57498E-05   -0.68432E-05 32992   0.317E-02
  22 F= -.32942496E+03 E0= -.32942496E+03  d E =-.650150E-01  mag=     0.0000
       N       E                     dE             d eps       ncg     rms          rms(c)
DAV:   1    -0.329268807364E+03    0.15614E+00   -0.28217E+01 24064   0.162E+01    0.241E+00
DAV:   2    -0.329462692205E+03   -0.19388E+00   -0.20260E+00 39336   0.586E+00    0.129E+00
DAV:   3    -0.329470773947E+03   -0.80817E-02   -0.12624E-01 44304   0.123E+00    0.833E-01
DAV:   4    -0.329470069944E+03    0.70400E-03   -0.18031E-02 42168   0.520E-01    0.640E-01
DAV:   5    -0.329469277438E+03    0.79251E-03   -0.45720E-03 39464   0.281E-01    0.321E-01
DAV:   6    -0.329469077540E+03    0.19990E-03   -0.19114E-03 39840   0.175E-01    0.134E-01
DAV:   7    -0.329469153900E+03   -0.76360E-04   -0.90172E-04 43656   0.109E-01    0.959E-02
DAV:   8    -0.329469167311E+03   -0.13411E-04   -0.13560E-04 37776   0.419E-02    0.742E-02
DAV:   9    -0.329469155738E+03    0.11572E-04   -0.54778E-05 26928   0.344E-02    0.357E-02
DAV:  10    -0.329469155922E+03   -0.18350E-06   -0.14477E-05 17336   0.219E-02
  23 F= -.32946916E+03 E0= -.32946916E+03  d E =-.441986E-01  mag=    -0.0000
       N       E                     dE             d eps       ncg     rms          rms(c)
DAV:   1    -0.329401679771E+03    0.67476E-01   -0.11095E+01 24064   0.102E+01    0.149E+00
DAV:   2    -0.329476234828E+03   -0.74555E-01   -0.77744E-01 39472   0.368E+00    0.816E-01
DAV:   3    -0.329478857456E+03   -0.26226E-02   -0.44348E-02 43952   0.763E-01    0.527E-01
DAV:   4    -0.329478490767E+03    0.36669E-03   -0.60970E-03 42312   0.316E-01    0.409E-01
DAV:   5    -0.329478152058E+03    0.33871E-03   -0.16713E-03 39168   0.178E-01    0.201E-01
DAV:   6    -0.329478089013E+03    0.63045E-04   -0.76822E-04 41008   0.108E-01    0.848E-02
DAV:   7    -0.329478115182E+03   -0.26169E-04   -0.31709E-04 42392   0.666E-02    0.623E-02
DAV:   8    -0.329478118667E+03   -0.34854E-05   -0.36415E-05 25176   0.264E-02
  24 F= -.32947812E+03 E0= -.32947812E+03  d E =-.531614E-01  mag=    -0.0000
       N       E                     dE             d eps       ncg     rms          rms(c)
DAV:   1    -0.329261015698E+03    0.21710E+00   -0.31644E+01 24064   0.187E+01    0.259E+00
DAV:   2    -0.329511443723E+03   -0.25043E+00   -0.26064E+00 38576   0.680E+00    0.155E+00
DAV:   3    -0.329522546713E+03   -0.11103E-01   -0.16191E-01 44048   0.144E+00    0.102E+00
DAV:   4    -0.329521714363E+03    0.83235E-03   -0.22413E-02 42968   0.587E-01    0.806E-01
DAV:   5    -0.329520964987E+03    0.74938E-03   -0.55092E-03 41768   0.283E-01    0.427E-01
DAV:   6    -0.329520584154E+03    0.38083E-03   -0.20347E-03 36904   0.202E-01    0.147E-01
DAV:   7    -0.329520674827E+03   -0.90673E-04   -0.10047E-03 41984   0.115E-01    0.994E-02
DAV:   8    -0.329520689414E+03   -0.14587E-04   -0.17848E-04 42672   0.506E-02    0.816E-02
DAV:   9    -0.329520676784E+03    0.12630E-04   -0.62504E-05 27664   0.385E-02    0.422E-02
DAV:  10    -0.329520677080E+03   -0.29609E-06   -0.18383E-05 19136   0.237E-02
  25 F= -.32952068E+03 E0= -.32952068E+03  d E =-.425584E-01  mag=    -0.0000
       N       E                     dE             d eps       ncg     rms          rms(c)
DAV:   1    -0.329464679722E+03    0.55997E-01   -0.78157E+00 24064   0.926E+00    0.127E+00
DAV:   2    -0.329524883436E+03   -0.60204E-01   -0.62564E-01 38920   0.340E+00    0.766E-01
DAV:   3    -0.329527321217E+03   -0.24378E-02   -0.36904E-02 44056   0.700E-01    0.503E-01
DAV:   4    -0.329527025263E+03    0.29595E-03   -0.46326E-03 42952   0.270E-01    0.404E-01
DAV:   5    -0.329526824474E+03    0.20079E-03   -0.11993E-03 41384   0.138E-01    0.213E-01
DAV:   6    -0.329526732047E+03    0.92427E-04   -0.49822E-04 37328   0.980E-02    0.741E-02
DAV:   7    -0.329526753406E+03   -0.21359E-04   -0.23620E-04 41000   0.574E-02    0.484E-02
DAV:   8    -0.329526754743E+03   -0.13362E-05   -0.19735E-05 19744   0.256E-02
  26 F= -.32952675E+03 E0= -.32952675E+03  d E =-.486361E-01  mag=     0.0000
       N       E                     dE             d eps       ncg     rms          rms(c)
DAV:   1    -0.329337061712E+03    0.18969E+00   -0.25186E+01 24064   0.172E+01    0.232E+00
DAV:   2    -0.329557534964E+03   -0.22047E+00   -0.22764E+00 38012   0.626E+00    0.133E+00
DAV:   3    -0.329565576602E+03   -0.80416E-02   -0.12381E-01 43840   0.123E+00    0.918E-01
DAV:   4    -0.329564557320E+03    0.10193E-02   -0.15646E-02 43432   0.489E-01    0.655E-01
DAV:   5    -0.329563904965E+03    0.65236E-03   -0.43478E-03 40008   0.263E-01    0.294E-01
DAV:   6    -0.329563855451E+03    0.49514E-04   -0.15432E-03 41824   0.159E-01    0.118E-01
DAV:   7    -0.329563895798E+03   -0.40346E-04   -0.55403E-04 43072   0.100E-01    0.915E-02
DAV:   8    -0.329563903298E+03   -0.74999E-05   -0.10639E-04 37856   0.386E-02    0.658E-02
DAV:   9    -0.329563894646E+03    0.86518E-05   -0.50173E-05 26088   0.360E-02
  27 F= -.32956389E+03 E0= -.32956389E+03  d E =-.371399E-01  mag=     0.0000
       N       E                     dE             d eps       ncg     rms          rms(c)
DAV:   1    -0.329396946245E+03    0.16696E+00   -0.19937E+01 24064   0.153E+01    0.206E+00
DAV:   2    -0.329570509341E+03   -0.17356E+00   -0.17912E+00 38416   0.557E+00    0.118E+00
DAV:   3    -0.329576612243E+03   -0.61029E-02   -0.95586E-02 43968   0.110E+00    0.820E-01
DAV:   4    -0.329575763973E+03    0.84827E-03   -0.12145E-02 43240   0.432E-01    0.584E-01
DAV:   5    -0.329575229831E+03    0.53414E-03   -0.34489E-03 40152   0.238E-01    0.259E-01
DAV:   6    -0.329575195575E+03    0.34256E-04   -0.12383E-03 42176   0.143E-01    0.104E-01
DAV:   7    -0.329575226673E+03   -0.31098E-04   -0.43054E-04 43144   0.894E-02    0.822E-02
DAV:   8    -0.329575231788E+03   -0.51154E-05   -0.75868E-05 34040   0.341E-02
  28 F= -.32957523E+03 E0= -.32957523E+03  d E =-.484770E-01  mag=    -0.0000
       N       E                     dE             d eps       ncg     rms          rms(c)
DAV:   1    -0.329421595545E+03    0.15363E+00   -0.23391E+01 24064   0.155E+01    0.205E+00
DAV:   2    -0.329601739182E+03   -0.18014E+00   -0.18492E+00 37800   0.550E+00    0.110E+00
DAV:   3    -0.329609659601E+03   -0.79204E-02   -0.10954E-01 44464   0.110E+00    0.782E-01
DAV:   4    -0.329609231241E+03    0.42836E-03   -0.14935E-02 43488   0.420E-01    0.545E-01
DAV:   5    -0.329608786899E+03    0.44434E-03   -0.37712E-03 42072   0.205E-01    0.261E-01
DAV:   6    -0.329608665471E+03    0.12143E-03   -0.11173E-03 38632   0.132E-01    0.848E-02
DAV:   7    -0.329608708779E+03   -0.43308E-04   -0.50734E-04 44600   0.777E-02    0.753E-02
DAV:   8    -0.329608715244E+03   -0.64647E-05   -0.69218E-05 31816   0.318E-02
  29 F= -.32960872E+03 E0= -.32960872E+03  d E =-.334835E-01  mag=    -0.0000
       N       E                     dE             d eps       ncg     rms          rms(c)
DAV:   1    -0.329391213076E+03    0.21750E+00   -0.29273E+01 24064   0.174E+01    0.232E+00
DAV:   2    -0.329616075154E+03   -0.22486E+00   -0.23119E+00 38032   0.613E+00    0.123E+00
DAV:   3    -0.329626169724E+03   -0.10095E-01   -0.13931E-01 44248   0.122E+00    0.880E-01
DAV:   4    -0.329625718765E+03    0.45096E-03   -0.19622E-02 43776   0.472E-01    0.619E-01
DAV:   5    -0.329625111606E+03    0.60716E-03   -0.48386E-03 41856   0.233E-01    0.298E-01
DAV:   6    -0.329624953882E+03    0.15772E-03   -0.14622E-03 38896   0.150E-01    0.969E-02
DAV:   7    -0.329625011599E+03   -0.57716E-04   -0.66789E-04 44928   0.887E-02    0.861E-02
DAV:   8    -0.329625021397E+03   -0.97981E-05   -0.97678E-05 35792   0.359E-02
  30 F= -.32962502E+03 E0= -.32962502E+03  d E =-.497896E-01  mag=    -0.0000
       N       E                     dE             d eps       ncg     rms          rms(c)
DAV:   1    -0.329492038706E+03    0.13297E+00   -0.20403E+01 24576   0.151E+01    0.184E+00
DAV:   2    -0.329648073108E+03   -0.15603E+00   -0.16381E+00 38576   0.519E+00    0.122E+00
DAV:   3    -0.329652771392E+03   -0.46983E-02   -0.81601E-02 43808   0.114E+00    0.762E-01
DAV:   4    -0.329652246418E+03    0.52497E-03   -0.11683E-02 43864   0.432E-01    0.624E-01
DAV:   5    -0.329651570849E+03    0.67557E-03   -0.30116E-03 38568   0.234E-01    0.299E-01
DAV:   6    -0.329651506875E+03    0.63974E-04   -0.13772E-03 41320   0.152E-01    0.116E-01
DAV:   7    -0.329651538952E+03   -0.32077E-04   -0.58048E-04 40640   0.104E-01    0.974E-02
DAV:   8    -0.329651549359E+03   -0.10407E-04   -0.12244E-04 39728   0.403E-02    0.776E-02
DAV:   9    -0.329651537962E+03    0.11397E-04   -0.47938E-05 25000   0.345E-02    0.409E-02
DAV:  10    -0.329651538184E+03   -0.22210E-06   -0.15239E-05 17248   0.222E-02
  31 F= -.32965154E+03 E0= -.32965154E+03  d E =-.265168E-01  mag=     0.0000
       N       E                     dE             d eps       ncg     rms          rms(c)
DAV:   1    -0.329633461378E+03    0.18077E-01   -0.24416E+00 24248   0.523E+00    0.638E-01
DAV:   2    -0.329653349278E+03   -0.19888E-01   -0.20679E-01 38472   0.185E+00    0.437E-01
DAV:   3    -0.329654009649E+03   -0.66037E-03   -0.10951E-02 43824   0.398E-01    0.278E-01
DAV:   4    -0.329653921260E+03    0.88389E-04   -0.13045E-03 43008   0.148E-01    0.228E-01
DAV:   5    -0.329653841256E+03    0.80004E-04   -0.38232E-04 38648   0.839E-02    0.106E-01
DAV:   6    -0.329653836772E+03    0.44841E-05   -0.16863E-04 40224   0.537E-02    0.414E-02
DAV:   7    -0.329653839466E+03   -0.26948E-05   -0.58976E-05 28920   0.375E-02
  32 F= -.32965384E+03 E0= -.32965384E+03  d E =-.288181E-01  mag=    -0.0000
       N       E                     dE             d eps       ncg     rms          rms(c)
DAV:   1    -0.329607786493E+03    0.46050E-01   -0.10026E+01 24064   0.939E+00    0.119E+00
DAV:   2    -0.329670782372E+03   -0.62996E-01   -0.65359E-01 38752   0.324E+00    0.653E-01
DAV:   3    -0.329673163238E+03   -0.23809E-02   -0.35131E-02 44512   0.643E-01    0.439E-01
DAV:   4    -0.329672958086E+03    0.20515E-03   -0.52957E-03 43320   0.247E-01    0.311E-01
DAV:   5    -0.329672784578E+03    0.17351E-03   -0.11979E-03 40616   0.131E-01    0.152E-01
DAV:   6    -0.329672737709E+03    0.46869E-04   -0.37570E-04 38904   0.784E-02    0.540E-02
DAV:   7    -0.329672758574E+03   -0.20865E-04   -0.22540E-04 43688   0.460E-02    0.475E-02
DAV:   8    -0.329672759949E+03   -0.13752E-05   -0.20303E-05 20688   0.215E-02
  33 F= -.32967276E+03 E0= -.32967276E+03  d E =-.189205E-01  mag=    -0.0000
       N       E                     dE             d eps       ncg     rms          rms(c)
DAV:   1    -0.329563259020E+03    0.10950E+00   -0.18226E+01 24064   0.127E+01    0.161E+00
DAV:   2    -0.329680442511E+03   -0.11718E+00   -0.12177E+00 38632   0.436E+00    0.888E-01
DAV:   3    -0.329685275736E+03   -0.48332E-02   -0.69200E-02 44384   0.872E-01    0.603E-01
DAV:   4    -0.329685003007E+03    0.27273E-03   -0.11053E-02 43640   0.333E-01    0.427E-01
DAV:   5    -0.329684673053E+03    0.32995E-03   -0.23437E-03 40704   0.175E-01    0.213E-01
DAV:   6    -0.329684558141E+03    0.11491E-03   -0.71294E-04 38144   0.109E-01    0.744E-02
DAV:   7    -0.329684605385E+03   -0.47245E-04   -0.50304E-04 45216   0.643E-02    0.640E-02
DAV:   8    -0.329684609724E+03   -0.43392E-05   -0.56488E-05 27352   0.293E-02
  34 F= -.32968461E+03 E0= -.32968461E+03  d E =-.307703E-01  mag=     0.0000
       N       E                     dE             d eps       ncg     rms          rms(c)
DAV:   1    -0.329678511602E+03    0.60938E-02   -0.10654E+00 24112   0.306E+00    0.399E-01
DAV:   2    -0.329684929600E+03   -0.64180E-02   -0.66359E-02 38320   0.105E+00    0.210E-01
DAV:   3    -0.329685172661E+03   -0.24306E-03   -0.36310E-03 43964   0.213E-01    0.142E-01
DAV:   4    -0.329685134325E+03    0.38336E-04   -0.39849E-04 43176   0.767E-02    0.984E-02
DAV:   5    -0.329685120009E+03    0.14316E-04   -0.10155E-04 34192   0.407E-02    0.485E-02
DAV:   6    -0.329685115508E+03    0.45010E-05   -0.33095E-05 22840   0.277E-02
  35 F= -.32968512E+03 E0= -.32968512E+03  d E =-.312760E-01  mag=     0.0000
       N       E                     dE             d eps       ncg     rms          rms(c)
DAV:   1    -0.329670848152E+03    0.14272E-01   -0.42145E+00 24068   0.591E+00    0.736E-01
DAV:   2    -0.329693953268E+03   -0.23105E-01   -0.24519E-01 39872   0.201E+00    0.430E-01
DAV:   3    -0.329694835988E+03   -0.88272E-03   -0.12895E-02 43968   0.419E-01    0.270E-01
DAV:   4    -0.329694794803E+03    0.41186E-04   -0.19536E-03 43248   0.169E-01    0.241E-01
DAV:   5    -0.329694756152E+03    0.38651E-04   -0.44598E-04 42416   0.789E-02    0.149E-01
DAV:   6    -0.329694699075E+03    0.57077E-04   -0.20093E-04 33296   0.656E-02    0.544E-02
DAV:   7    -0.329694709385E+03   -0.10309E-04   -0.11212E-04 35672   0.387E-02    0.278E-02
DAV:   8    -0.329694710603E+03   -0.12184E-05   -0.11887E-05 18480   0.200E-02
  36 F= -.32969471E+03 E0= -.32969471E+03  d E =-.959509E-02  mag=     0.0000
       N       E                     dE             d eps       ncg     rms          rms(c)
DAV:   1    -0.329651885572E+03    0.42824E-01   -0.82365E+00 24064   0.827E+00    0.104E+00
DAV:   2    -0.329698042217E+03   -0.46157E-01   -0.48982E-01 39864   0.282E+00    0.603E-01
DAV:   3    -0.329700197106E+03   -0.21549E-02   -0.29543E-02 43848   0.592E-01    0.380E-01
DAV:   4    -0.329700170592E+03    0.26514E-04   -0.44400E-03 43208   0.240E-01    0.340E-01
DAV:   5    -0.329700098303E+03    0.72290E-04   -0.94198E-04 42408   0.112E-01    0.214E-01
DAV:   6    -0.329699973369E+03    0.12493E-03   -0.40675E-04 32920   0.931E-02    0.777E-02
DAV:   7    -0.329699996868E+03   -0.23499E-04   -0.25507E-04 41224   0.552E-02    0.386E-02
DAV:   8    -0.329699999781E+03   -0.29132E-05   -0.30528E-05 22008   0.257E-02
  37 F= -.32970000E+03 E0= -.32970000E+03  d E =-.148843E-01  mag=    -0.0000
       N       E                     dE             d eps       ncg     rms          rms(c)
DAV:   1    -0.329673054938E+03    0.26942E-01   -0.65618E+00 24064   0.737E+00    0.972E-01
DAV:   2    -0.329708986138E+03   -0.35931E-01   -0.37231E-01 38872   0.246E+00    0.528E-01
DAV:   3    -0.329710479601E+03   -0.14935E-02   -0.21664E-02 44208   0.481E-01    0.359E-01
DAV:   4    -0.329710328641E+03    0.15096E-03   -0.29764E-03 42896   0.193E-01    0.255E-01
DAV:   5    -0.329710242938E+03    0.85702E-04   -0.81377E-04 39080   0.110E-01    0.124E-01
DAV:   6    -0.329710224968E+03    0.17970E-04   -0.25095E-04 39528   0.638E-02    0.491E-02
DAV:   7    -0.329710234203E+03   -0.92354E-05   -0.10664E-04 36728   0.402E-02    0.409E-02
DAV:   8    -0.329710234084E+03    0.11957E-06   -0.11065E-05 18184   0.202E-02
  38 F= -.32971023E+03 E0= -.32971023E+03  d E =-.102343E-01  mag=    -0.0000
       N       E                     dE             d eps       ncg     rms          rms(c)
DAV:   1    -0.329676011581E+03    0.34223E-01   -0.66872E+00 24064   0.743E+00    0.983E-01
DAV:   2    -0.329712884955E+03   -0.36873E-01   -0.38181E-01 38688   0.249E+00    0.532E-01
DAV:   3    -0.329714545717E+03   -0.16608E-02   -0.23468E-02 44128   0.489E-01    0.363E-01
DAV:   4    -0.329714391908E+03    0.15381E-03   -0.31502E-03 43440   0.195E-01    0.258E-01
DAV:   5    -0.329714308711E+03    0.83197E-04   -0.82527E-04 39248   0.109E-01    0.127E-01
DAV:   6    -0.329714286789E+03    0.21922E-04   -0.25413E-04 38952   0.648E-02    0.495E-02
DAV:   7    -0.329714297057E+03   -0.10268E-04   -0.11778E-04 37472   0.410E-02    0.412E-02
DAV:   8    -0.329714297015E+03    0.41982E-07   -0.11741E-05 18312   0.205E-02
  39 F= -.32971430E+03 E0= -.32971430E+03  d E =-.142972E-01  mag=    -0.0000
       N       E                     dE             d eps       ncg     rms          rms(c)
DAV:   1    -0.329683287984E+03    0.31009E-01   -0.53057E+00 24064   0.718E+00    0.962E-01
DAV:   2    -0.329720040899E+03   -0.36753E-01   -0.39023E-01 39440   0.259E+00    0.526E-01
DAV:   3    -0.329721367574E+03   -0.13267E-02   -0.20903E-02 43736   0.529E-01    0.351E-01
DAV:   4    -0.329721237871E+03    0.12970E-03   -0.29388E-03 44712   0.206E-01    0.287E-01
DAV:   5    -0.329721158578E+03    0.79293E-04   -0.58342E-04 39688   0.100E-01    0.173E-01
DAV:   6    -0.329721076441E+03    0.82137E-04   -0.38495E-04 34280   0.880E-02    0.529E-02
DAV:   7    -0.329721091273E+03   -0.14833E-04   -0.17852E-04 40008   0.513E-02    0.349E-02
DAV:   8    -0.329721091697E+03   -0.42403E-06   -0.14936E-05 19392   0.214E-02
  40 F= -.32972109E+03 E0= -.32972109E+03  d E =-.679468E-02  mag=     0.0000
       N       E                     dE             d eps       ncg     rms          rms(c)
DAV:   1    -0.329716118779E+03    0.49725E-02   -0.80774E-01 24064   0.280E+00    0.379E-01
DAV:   2    -0.329721547250E+03   -0.54285E-02   -0.57675E-02 39144   0.101E+00    0.206E-01
DAV:   3    -0.329721841801E+03   -0.29455E-03   -0.40993E-03 43736   0.222E-01    0.138E-01
DAV:   4    -0.329721819535E+03    0.22266E-04   -0.40466E-04 43584   0.806E-02    0.112E-01
DAV:   5    -0.329721807550E+03    0.11985E-04   -0.70865E-05 31048   0.393E-02    0.687E-02
DAV:   6    -0.329721796102E+03    0.11448E-04   -0.64153E-05 27136   0.355E-02    0.233E-02
DAV:   7    -0.329721797371E+03   -0.12685E-05   -0.16598E-05 17232   0.241E-02
  41 F= -.32972180E+03 E0= -.32972180E+03  d E =-.750036E-02  mag=    -0.0000
       N       E                     dE             d eps       ncg     rms          rms(c)
DAV:   1    -0.329696976967E+03    0.24819E-01   -0.49367E+00 24064   0.660E+00    0.834E-01
DAV:   2    -0.329726593013E+03   -0.29616E-01   -0.30700E-01 38208   0.228E+00    0.442E-01
DAV:   3    -0.329728018326E+03   -0.14253E-02   -0.18886E-02 43600   0.450E-01    0.313E-01
DAV:   4    -0.329727909715E+03    0.10861E-03   -0.22645E-03 43832   0.168E-01    0.220E-01
DAV:   5    -0.329727874897E+03    0.34818E-04   -0.51363E-04 41912   0.823E-02    0.109E-01
DAV:   6    -0.329727854690E+03    0.20207E-04   -0.14924E-04 35624   0.550E-02    0.375E-02
DAV:   7    -0.329727861604E+03   -0.69139E-05   -0.86578E-05 31120   0.321E-02
  42 F= -.32972786E+03 E0= -.32972786E+03  d E =-.606423E-02  mag=    -0.0000
       N       E                     dE             d eps       ncg     rms          rms(c)
DAV:   1    -0.329695826327E+03    0.32028E-01   -0.54250E+00 24064   0.693E+00    0.882E-01
DAV:   2    -0.329728650812E+03   -0.32824E-01   -0.34025E-01 38368   0.240E+00    0.461E-01
DAV:   3    -0.329730198692E+03   -0.15479E-02   -0.20525E-02 43600   0.474E-01    0.326E-01
DAV:   4    -0.329730082371E+03    0.11632E-03   -0.24748E-03 43904   0.178E-01    0.231E-01
DAV:   5    -0.329730047488E+03    0.34883E-04   -0.54804E-04 41976   0.854E-02    0.116E-01
DAV:   6    -0.329730024397E+03    0.23091E-04   -0.17090E-04 35488   0.590E-02    0.384E-02
DAV:   7    -0.329730032575E+03   -0.81781E-05   -0.10081E-04 32712   0.340E-02    0.312E-02
DAV:   8    -0.329730032298E+03    0.27766E-06   -0.13156E-05 18440   0.199E-02
  43 F= -.32973003E+03 E0= -.32973003E+03  d E =-.823493E-02  mag=    -0.0000
       N       E                     dE             d eps       ncg     rms          rms(c)
DAV:   1    -0.329704378723E+03    0.25654E-01   -0.60640E+00 24064   0.684E+00    0.997E-01
DAV:   2    -0.329732843684E+03   -0.28465E-01   -0.30142E-01 38584   0.226E+00    0.618E-01
DAV:   3    -0.329734932158E+03   -0.20885E-02   -0.28411E-02 42176   0.566E-01    0.348E-01
DAV:   4    -0.329734949711E+03   -0.17554E-04   -0.32518E-03 42008   0.214E-01    0.284E-01
DAV:   5    -0.329734817717E+03    0.13199E-03   -0.82954E-04 39040   0.124E-01    0.142E-01
DAV:   6    -0.329734790262E+03    0.27455E-04   -0.31500E-04 38920   0.705E-02    0.540E-02
DAV:   7    -0.329734800588E+03   -0.10326E-04   -0.12630E-04 38184   0.406E-02    0.469E-02
DAV:   8    -0.329734801135E+03   -0.54691E-06   -0.11375E-05 18848   0.192E-02
  44 F= -.32973480E+03 E0= -.32973480E+03  d E =-.476884E-02  mag=    -0.0000
       N       E                     dE             d eps       ncg     rms          rms(c)
DAV:   1    -0.329730156822E+03    0.46438E-02   -0.10204E+00 24064   0.281E+00    0.408E-01
DAV:   2    -0.329734781477E+03   -0.46247E-02   -0.48956E-02 37960   0.932E-01    0.254E-01
DAV:   3    -0.329735249643E+03   -0.46817E-03   -0.59541E-03 42584   0.252E-01    0.142E-01
DAV:   4    -0.329735243051E+03    0.65927E-05   -0.44256E-04 41080   0.893E-02    0.118E-01
DAV:   5    -0.329735220305E+03    0.22746E-04   -0.11451E-04 36136   0.500E-02    0.605E-02
DAV:   6    -0.329735214271E+03    0.60334E-05   -0.51761E-05 26840   0.308E-02
  45 F= -.32973521E+03 E0= -.32973521E+03  d E =-.518197E-02  mag=     0.0000
       N       E                     dE             d eps       ncg     rms          rms(c)
DAV:   1    -0.329706073137E+03    0.29147E-01   -0.57432E+00 24064   0.698E+00    0.883E-01
DAV:   2    -0.329737061105E+03   -0.30988E-01   -0.32295E-01 37936   0.239E+00    0.496E-01
DAV:   3    -0.329739567368E+03   -0.25063E-02   -0.30476E-02 44152   0.536E-01    0.321E-01
DAV:   4    -0.329739556403E+03    0.10965E-04   -0.29865E-03 42808   0.195E-01    0.241E-01
DAV:   5    -0.329739492854E+03    0.63549E-04   -0.64738E-04 40328   0.104E-01    0.133E-01
DAV:   6    -0.329739450871E+03    0.41983E-04   -0.26577E-04 37440   0.706E-02    0.511E-02
DAV:   7    -0.329739462256E+03   -0.11386E-04   -0.12608E-04 37768   0.425E-02    0.367E-02
DAV:   8    -0.329739463375E+03   -0.11188E-05   -0.13113E-05 18552   0.198E-02
  46 F= -.32973946E+03 E0= -.32973946E+03  d E =-.424910E-02  mag=    -0.0000
       N       E                     dE             d eps       ncg     rms          rms(c)
DAV:   1    -0.329735407678E+03    0.40546E-02   -0.76859E-01 24080   0.255E+00    0.327E-01
DAV:   2    -0.329739499599E+03   -0.40919E-02   -0.42588E-02 38048   0.879E-01    0.180E-01
DAV:   3    -0.329739843210E+03   -0.34361E-03   -0.41568E-03 44128   0.199E-01    0.116E-01
DAV:   4    -0.329739830500E+03    0.12709E-04   -0.28390E-04 40520   0.688E-02    0.871E-02
DAV:   5    -0.329739820793E+03    0.97074E-05   -0.57625E-05 29056   0.365E-02
  47 F= -.32973982E+03 E0= -.32973982E+03  d E =-.460652E-02  mag=     0.0000
       N       E                     dE             d eps       ncg     rms          rms(c)
DAV:   1    -0.329722259237E+03    0.17571E-01   -0.29766E+00 24064   0.538E+00    0.662E-01
DAV:   2    -0.329741133132E+03   -0.18874E-01   -0.19689E-01 38656   0.188E+00    0.377E-01
DAV:   3    -0.329742625035E+03   -0.14919E-02   -0.18860E-02 44768   0.437E-01    0.270E-01
DAV:   4    -0.329742591130E+03    0.33906E-04   -0.14439E-03 43416   0.150E-01    0.210E-01
DAV:   5    -0.329742544065E+03    0.47065E-04   -0.32149E-04 40600   0.756E-02    0.123E-01
DAV:   6    -0.329742510651E+03    0.33414E-04   -0.16930E-04 34160   0.591E-02    0.410E-02
DAV:   7    -0.329742517065E+03   -0.64142E-05   -0.71981E-05 31464   0.357E-02
  48 F= -.32974252E+03 E0= -.32974252E+03  d E =-.269627E-02  mag=     0.0000
       N       E                     dE             d eps       ncg     rms          rms(c)
DAV:   1    -0.329741781867E+03    0.72878E-03   -0.11552E-01 24192   0.106E+00    0.149E-01
DAV:   2    -0.329742558072E+03   -0.77621E-03   -0.81133E-03 39152   0.378E-01    0.713E-02
DAV:   3    -0.329742600744E+03   -0.42672E-04   -0.56469E-04 43536   0.805E-02    0.479E-02
DAV:   4    -0.329742598666E+03    0.20786E-05   -0.42008E-05 28720   0.307E-02
  49 F= -.32974260E+03 E0= -.32974260E+03  d E =-.277787E-02  mag=     0.0000
       N       E                     dE             d eps       ncg     rms          rms(c)
DAV:   1    -0.329728836580E+03    0.13764E-01   -0.21008E+00 24064   0.467E+00    0.544E-01
DAV:   2    -0.329743612685E+03   -0.14776E-01   -0.15339E-01 37688   0.166E+00    0.333E-01
DAV:   3    -0.329744497853E+03   -0.88517E-03   -0.11743E-02 43672   0.375E-01    0.217E-01
DAV:   4    -0.329744458869E+03    0.38984E-04   -0.10223E-03 43064   0.135E-01    0.180E-01
DAV:   5    -0.329744410705E+03    0.48164E-04   -0.24856E-04 39152   0.716E-02    0.100E-01
DAV:   6    -0.329744389264E+03    0.21441E-04   -0.12946E-04 35424   0.503E-02    0.402E-02
DAV:   7    -0.329744392981E+03   -0.37172E-05   -0.45415E-05 27112   0.321E-02
  50 F= -.32974439E+03 E0= -.32974439E+03  d E =-.179432E-02  mag=     0.0000
       N       E                     dE             d eps       ncg     rms          rms(c)
DAV:   1    -0.329744024767E+03    0.36450E-03   -0.51449E-02 24224   0.734E-01    0.993E-02
DAV:   2    -0.329744413668E+03   -0.38890E-03   -0.40525E-03 38280   0.269E-01    0.488E-02
DAV:   3    -0.329744433248E+03   -0.19580E-04   -0.25339E-04 41016   0.559E-02    0.289E-02
DAV:   4    -0.329744431975E+03    0.12737E-05   -0.16762E-05 20928   0.237E-02
  51 F= -.32974443E+03 E0= -.32974443E+03  d E =-.183331E-02  mag=    -0.0000
       N       E                     dE             d eps       ncg     rms          rms(c)
DAV:   1    -0.329737246770E+03    0.71865E-02   -0.11292E+00 24064   0.344E+00    0.452E-01
DAV:   2    -0.329745233893E+03   -0.79871E-02   -0.83626E-02 37848   0.123E+00    0.276E-01
DAV:   3    -0.329745649547E+03   -0.41565E-03   -0.59529E-03 43272   0.282E-01    0.167E-01
DAV:   4    -0.329745620502E+03    0.29045E-04   -0.55161E-04 43256   0.102E-01    0.139E-01
DAV:   5    -0.329745591435E+03    0.29067E-04   -0.12907E-04 37472   0.502E-02    0.758E-02
DAV:   6    -0.329745580056E+03    0.11379E-04   -0.72781E-05 29912   0.386E-02    0.294E-02
DAV:   7    -0.329745581611E+03   -0.15549E-05   -0.20728E-05 18320   0.259E-02
  52 F= -.32974558E+03 E0= -.32974558E+03  d E =-.114964E-02  mag=    -0.0000
       N       E                     dE             d eps       ncg     rms          rms(c)
DAV:   1    -0.329745101204E+03    0.47885E-03   -0.65409E-02 24288   0.831E-01    0.121E-01
DAV:   2    -0.329745622280E+03   -0.52108E-03   -0.54540E-03 38688   0.315E-01    0.649E-02
DAV:   3    -0.329745638842E+03   -0.16561E-04   -0.25588E-04 42056   0.625E-02    0.352E-02
DAV:   4    -0.329745636511E+03    0.23305E-05   -0.22652E-05 24008   0.263E-02
  53 F= -.32974564E+03 E0= -.32974564E+03  d E =-.120454E-02  mag=    -0.0000
       N       E                     dE             d eps       ncg     rms          rms(c)
DAV:   1    -0.329738495958E+03    0.71429E-02   -0.11190E+00 24064   0.339E+00    0.470E-01
DAV:   2    -0.329746075272E+03   -0.75793E-02   -0.79012E-02 39024   0.121E+00    0.250E-01
DAV:   3    -0.329746632089E+03   -0.55682E-03   -0.70542E-03 44192   0.270E-01    0.168E-01
DAV:   4    -0.329746581735E+03    0.50353E-04   -0.50472E-04 42232   0.910E-02    0.121E-01
DAV:   5    -0.329746567831E+03    0.13905E-04   -0.12451E-04 37032   0.474E-02    0.634E-02
DAV:   6    -0.329746562536E+03    0.52948E-05   -0.53977E-05 26128   0.335E-02
  54 F= -.32974656E+03 E0= -.32974656E+03  d E =-.926025E-03  mag=     0.0000
       N       E                     dE             d eps       ncg     rms          rms(c)
DAV:   1    -0.329746409009E+03    0.15882E-03   -0.21299E-02 24896   0.468E-01    0.790E-02
DAV:   2    -0.329746578163E+03   -0.16915E-03   -0.17829E-03 40072   0.180E-01    0.353E-02
DAV:   3    -0.329746583139E+03   -0.49762E-05   -0.69452E-05 32664   0.332E-02
  55 F= -.32974658E+03 E0= -.32974658E+03  d E =-.946628E-03  mag=     0.0000
       N       E                     dE             d eps       ncg     rms          rms(c)
DAV:   1    -0.329740154824E+03    0.64233E-02   -0.10480E+00 24064   0.323E+00    0.473E-01
DAV:   2    -0.329746938018E+03   -0.67832E-02   -0.71479E-02 39144   0.117E+00    0.258E-01
DAV:   3    -0.329747389560E+03   -0.45154E-03   -0.61065E-03 43584   0.261E-01    0.170E-01
DAV:   4    -0.329747353635E+03    0.35925E-04   -0.50281E-04 43120   0.921E-02    0.134E-01
DAV:   5    -0.329747331697E+03    0.21938E-04   -0.11721E-04 37760   0.466E-02    0.751E-02
DAV:   6    -0.329747319287E+03    0.12410E-04   -0.70530E-05 29000   0.373E-02    0.264E-02
DAV:   7    -0.329747320894E+03   -0.16071E-05   -0.19522E-05 17816   0.240E-02
  56 F= -.32974732E+03 E0= -.32974732E+03  d E =-.737755E-03  mag=    -0.0000
       N       E                     dE             d eps       ncg     rms          rms(c)
DAV:   1    -0.329747290282E+03    0.29005E-04   -0.41073E-03 25160   0.205E-01    0.410E-02
DAV:   2    -0.329747325162E+03   -0.34880E-04   -0.37453E-04 39968   0.801E-02    0.162E-02
DAV:   3    -0.329747325900E+03   -0.73723E-06   -0.10283E-05 16408   0.168E-02
  57 F= -.32974733E+03 E0= -.32974733E+03  d E =-.742760E-03  mag=    -0.0000
       N       E                     dE             d eps       ncg     rms          rms(c)
DAV:   1    -0.329743401360E+03    0.39238E-02   -0.66779E-01 24064   0.258E+00    0.361E-01
DAV:   2    -0.329747695336E+03   -0.42940E-02   -0.44592E-02 37712   0.919E-01    0.198E-01
DAV:   3    -0.329748001261E+03   -0.30592E-03   -0.38888E-03 43952   0.200E-01    0.134E-01
DAV:   4    -0.329747975833E+03    0.25428E-04   -0.28212E-04 41696   0.695E-02    0.960E-02
DAV:   5    -0.329747964109E+03    0.11724E-04   -0.68571E-05 31016   0.375E-02    0.477E-02
DAV:   6    -0.329747960844E+03    0.32654E-05   -0.26890E-05 20328   0.253E-02
  58 F= -.32974796E+03 E0= -.32974796E+03  d E =-.634944E-03  mag=    -0.0000
       N       E                     dE             d eps       ncg     rms          rms(c)
DAV:   1    -0.329745225871E+03    0.27382E-02   -0.41080E-01 24064   0.202E+00    0.291E-01
DAV:   2    -0.329747891590E+03   -0.26657E-02   -0.27735E-02 38408   0.722E-01    0.152E-01
DAV:   3    -0.329748071994E+03   -0.18040E-03   -0.22801E-03 44312   0.155E-01    0.101E-01
DAV:   4    -0.329748058575E+03    0.13419E-04   -0.17154E-04 38656   0.547E-02    0.724E-02
DAV:   5    -0.329748052154E+03    0.64212E-05   -0.32619E-05 23208   0.308E-02
  59 F= -.32974805E+03 E0= -.32974805E+03  d E =-.726254E-03  mag=     0.0000
       N       E                     dE             d eps       ncg     rms          rms(c)
DAV:   1    -0.329744688287E+03    0.33703E-02   -0.62335E-01 24064   0.234E+00    0.358E-01
DAV:   2    -0.329748175598E+03   -0.34873E-02   -0.36514E-02 38560   0.812E-01    0.191E-01
DAV:   3    -0.329748455101E+03   -0.27950E-03   -0.34850E-03 43784   0.196E-01    0.127E-01
DAV:   4    -0.329748434462E+03    0.20639E-04   -0.25742E-04 41384   0.639E-02    0.935E-02
DAV:   5    -0.329748424899E+03    0.95632E-05   -0.58129E-05 29920   0.349E-02
  60 F= -.32974842E+03 E0= -.32974842E+03  d E =-.372745E-03  mag=    -0.0000
       N       E                     dE             d eps       ncg     rms          rms(c)
DAV:   1    -0.329748225532E+03    0.20893E-03   -0.34725E-02 24292   0.554E-01    0.842E-02
DAV:   2    -0.329748425298E+03   -0.19977E-03   -0.21086E-03 39560   0.194E-01    0.458E-02
DAV:   3    -0.329748441716E+03   -0.16418E-04   -0.19464E-04 37264   0.462E-02    0.277E-02
DAV:   4    -0.329748440761E+03    0.95531E-06   -0.11486E-05 17008   0.198E-02
  61 F= -.32974844E+03 E0= -.32974844E+03  d E =-.388607E-03  mag=    -0.0000
       N       E                     dE             d eps       ncg     rms          rms(c)
DAV:   1    -0.329747500626E+03    0.94109E-03   -0.18781E-01 24064   0.138E+00    0.202E-01
DAV:   2    -0.329748790752E+03   -0.12901E-02   -0.13485E-02 39336   0.520E-01    0.128E-01
DAV:   3    -0.329748849127E+03   -0.58375E-04   -0.89899E-04 44040   0.112E-01    0.821E-02
DAV:   4    -0.329748839116E+03    0.10011E-04   -0.78508E-05 32304   0.421E-02    0.667E-02
DAV:   5    -0.329748831127E+03    0.79889E-05   -0.24530E-05 19176   0.290E-02
  62 F= -.32974883E+03 E0= -.32974883E+03  d E =-.390366E-03  mag=    -0.0000
       N       E                     dE             d eps       ncg     rms          rms(c)
DAV:   1    -0.329746725078E+03    0.21140E-02   -0.31161E-01 24064   0.178E+00    0.264E-01
DAV:   2    -0.329748875432E+03   -0.21504E-02   -0.22498E-02 39264   0.667E-01    0.164E-01
DAV:   3    -0.329748968507E+03   -0.93074E-04   -0.14293E-03 43592   0.142E-01    0.102E-01
DAV:   4    -0.329748955204E+03    0.13303E-04   -0.15559E-04 39416   0.561E-02    0.830E-02
DAV:   5    -0.329748943698E+03    0.11506E-04   -0.42435E-05 26304   0.337E-02    0.408E-02
DAV:   6    -0.329748942127E+03    0.15707E-05   -0.19605E-05 18496   0.228E-02
  63 F= -.32974894E+03 E0= -.32974894E+03  d E =-.501366E-03  mag=    -0.0000
       N       E                     dE             d eps       ncg     rms          rms(c)
DAV:   1    -0.329748741280E+03    0.20242E-03   -0.48743E-02 24304   0.712E-01    0.107E-01
DAV:   2    -0.329749097347E+03   -0.35607E-03   -0.37141E-03 39800   0.270E-01    0.540E-02
DAV:   3    -0.329749112783E+03   -0.15437E-04   -0.22145E-04 40080   0.528E-02    0.351E-02
DAV:   4    -0.329749110192E+03    0.25913E-05   -0.11996E-05 17648   0.203E-02
  64 F= -.32974911E+03 E0= -.32974911E+03  d E =-.168065E-03  mag=    -0.0000
       N       E                     dE             d eps       ncg     rms          rms(c)
DAV:   1    -0.329746212510E+03    0.29003E-02   -0.43466E-01 24064   0.212E+00    0.296E-01
DAV:   2    -0.329749304747E+03   -0.30922E-02   -0.32063E-02 39272   0.799E-01    0.178E-01
DAV:   3    -0.329749422108E+03   -0.11736E-03   -0.18369E-03 43456   0.151E-01    0.120E-01
DAV:   4    -0.329749396139E+03    0.25969E-04   -0.18164E-04 40400   0.546E-02    0.883E-02
DAV:   5    -0.329749381947E+03    0.14192E-04   -0.46321E-05 26864   0.331E-02    0.492E-02
DAV:   6    -0.329749377907E+03    0.40392E-05   -0.30396E-05 21824   0.252E-02
  65 F= -.32974938E+03 E0= -.32974938E+03  d E =-.435780E-03  mag=    -0.0000
       N       E                     dE             d eps       ncg     rms          rms(c)
DAV:   1    -0.329749462631E+03   -0.80684E-04   -0.11548E-02 24288   0.386E-01    0.769E-02
DAV:   2    -0.329749567461E+03   -0.10483E-03   -0.11934E-03 42176   0.158E-01    0.535E-02
DAV:   3    -0.329749567677E+03   -0.21590E-06   -0.59121E-05 27040   0.400E-02
  66 F= -.32974957E+03 E0= -.32974957E+03  d E =-.189769E-03  mag=    -0.0000
       N       E                     dE             d eps       ncg     rms          rms(c)
DAV:   1    -0.329749357583E+03    0.20988E-03   -0.44581E-02 24064   0.755E-01    0.143E-01
DAV:   2    -0.329749744661E+03   -0.38708E-03   -0.43644E-03 42648   0.306E-01    0.107E-01
DAV:   3    -0.329749745763E+03   -0.11021E-05   -0.22113E-04 37312   0.693E-02    0.589E-02
DAV:   4    -0.329749739142E+03    0.66204E-05   -0.32070E-05 25200   0.378E-02
  67 F= -.32974974E+03 E0= -.32974974E+03  d E =-.361235E-03  mag=    -0.0000
       N       E                     dE             d eps       ncg     rms          rms(c)
DAV:   1    -0.329749726696E+03    0.19067E-04   -0.93107E-03 24312   0.362E-01    0.534E-02
DAV:   2    -0.329749826201E+03   -0.99505E-04   -0.10797E-03 40248   0.145E-01    0.351E-02
DAV:   3    -0.329749826275E+03   -0.73382E-07   -0.38382E-05 23400   0.324E-02
  68 F= -.32974983E+03 E0= -.32974983E+03  d E =-.871322E-04  mag=    -0.0000
       N       E                     dE             d eps       ncg     rms          rms(c)
DAV:   1    -0.329749703403E+03    0.12280E-03   -0.18101E-02 24064   0.503E-01    0.666E-02
DAV:   2    -0.329749896418E+03   -0.19301E-03   -0.20625E-03 41008   0.200E-01    0.547E-02
DAV:   3    -0.329749898037E+03   -0.16197E-05   -0.78251E-05 32504   0.376E-02
  69 F= -.32974990E+03 E0= -.32974990E+03  d E =-.158895E-03  mag=     0.0000
       N       E                     dE             d eps       ncg     rms          rms(c)
DAV:   1    -0.329749825854E+03    0.70564E-04   -0.13972E-02 24064   0.447E-01    0.582E-02
DAV:   2    -0.329749977507E+03   -0.15165E-03   -0.16091E-03 38904   0.170E-01    0.453E-02
DAV:   3    -0.329749979261E+03   -0.17532E-05   -0.62882E-05 30512   0.354E-02
  70 F= -.32974998E+03 E0= -.32974998E+03  d E =-.812231E-04  mag=    -0.0000
       N       E                     dE             d eps       ncg     rms          rms(c)
DAV:   1    -0.329749737659E+03    0.23985E-03   -0.27309E-02 24064   0.623E-01    0.802E-02
DAV:   2    -0.329750029267E+03   -0.29161E-03   -0.30815E-03 39784   0.236E-01    0.646E-02
DAV:   3    -0.329750033539E+03   -0.42715E-05   -0.12382E-04 36992   0.436E-02    0.472E-02
DAV:   4    -0.329750028070E+03    0.54694E-05   -0.15000E-05 18624   0.237E-02
  71 F= -.32975003E+03 E0= -.32975003E+03  d E =-.130032E-03  mag=    -0.0000
       N       E                     dE             d eps       ncg     rms          rms(c)
DAV:   1    -0.329749826205E+03    0.20733E-03   -0.13384E-02 24064   0.527E-01    0.704E-02
DAV:   2    -0.329750092127E+03   -0.26592E-03   -0.28317E-03 39480   0.205E-01    0.556E-02
DAV:   3    -0.329750094534E+03   -0.24071E-05   -0.93968E-05 30512   0.452E-02
  72 F= -.32975009E+03 E0= -.32975009E+03  d E =-.664641E-04  mag=    -0.0000
       N       E                     dE             d eps       ncg     rms          rms(c)
DAV:   1    -0.329750091634E+03    0.49229E-06   -0.79654E-05 28600   0.443E-02    0.350E-02
DAV:   2    -0.329750091372E+03    0.26243E-06   -0.18319E-05 18936   0.244E-02
  73 F= -.32975009E+03 E0= -.32975009E+03  d E =-.633022E-04  mag=    -0.0000
