       N       E                     dE             d eps       ncg     rms          rms(c)
DAV:   1     0.660190391507E+04    0.66019E+04   -0.16276E+05  2592   0.202E+03
DAV:   2     0.142660860688E+04   -0.51753E+04   -0.45977E+04  2304   0.585E+02
DAV:   3    -0.147792453655E+03   -0.15744E+04   -0.13772E+04  2568   0.280E+02
DAV:   4    -0.560517063243E+03   -0.41272E+03   -0.37507E+03  2712   0.128E+02
DAV:   5    -0.590251649845E+03   -0.29735E+02   -0.29479E+02  3900   0.476E+01    0.122E+02
DAV:   6    -0.436958743808E+03    0.15329E+03   -0.87924E+02  3264   0.803E+01    0.136E+02
DAV:   7    -0.454305498681E+03   -0.17347E+02   -0.14205E+02  3768   0.385E+01    0.897E+01
DAV:   8    -0.474803571854E+03   -0.20498E+02   -0.49128E+01  3828   0.256E+01    0.468E+01
DAV:   9    -0.482615039518E+03   -0.78115E+01   -0.20351E+02  3180   0.391E+01    0.203E+01
DAV:  10    -0.486006600959E+03   -0.33916E+01   -0.33745E+01  3960   0.170E+01    0.111E+01
DAV:  11    -0.485745061185E+03    0.26154E+00   -0.59808E+00  3936   0.749E+00    0.852E+00
DAV:  12    -0.486199159628E+03   -0.45410E+00   -0.16433E+00  4116   0.351E+00    0.574E+00
DAV:  13    -0.486704310653E+03   -0.50515E+00   -0.14605E+00  3192   0.440E+00    0.429E+00
DAV:  14    -0.486878406219E+03   -0.17410E+00   -0.63338E-01  3624   0.219E+00    0.264E+00
DAV:  15    -0.487031572704E+03   -0.15317E+00   -0.27019E-01  3120   0.187E+00    0.183E+00
DAV:  16    -0.487075155094E+03   -0.43582E-01   -0.16719E-01  4152   0.966E-01    0.968E-01
DAV:  17    -0.487080835850E+03   -0.56808E-02   -0.19933E-02  4416   0.420E-01    0.686E-01
DAV:  18    -0.487083098453E+03   -0.22626E-02   -0.60897E-03  3972   0.288E-01    0.374E-01
DAV:  19    -0.487084790640E+03   -0.16922E-02   -0.34079E-03  3420   0.191E-01    0.220E-01
DAV:  20    -0.487084590816E+03    0.19982E-03   -0.11375E-03  3636   0.140E-01    0.986E-02
DAV:  21    -0.487084626883E+03   -0.36067E-04   -0.44276E-04  4092   0.560E-02    0.919E-02
DAV:  22    -0.487084645756E+03   -0.18873E-04   -0.47086E-05  2892   0.242E-02    0.747E-02
DAV:  23    -0.487084650814E+03   -0.50581E-05   -0.49742E-05  2808   0.274E-02
   1 F= -.48708465E+03 E0= -.48708465E+03  d E =-.487085E+03  mag=     0.0059
       N       E                     dE             d eps       ncg     rms          rms(c)
DAV:   1    -0.444068793487E+03    0.43016E+02   -0.23472E+03  2760   0.153E+02    0.400E+01
DAV:   2    -0.488946520934E+03   -0.44878E+02   -0.48418E+02  3228   0.629E+01    0.324E+01
DAV:   3    -0.490200229507E+03   -0.12537E+01   -0.28618E+01  3816   0.180E+01    0.233E+01
DAV:   4    -0.489857971853E+03    0.34226E+00   -0.46963E+00  4152   0.685E+00    0.183E+01
DAV:   5    -0.489568444820E+03    0.28953E+00   -0.11750E+00  3660   0.365E+00    0.982E+00
DAV:   6    -0.489513209042E+03    0.55236E-01   -0.60965E-01  3972   0.256E+00    0.400E+00
DAV:   7    -0.489522868641E+03   -0.96596E-02   -0.26911E-01  3972   0.155E+00    0.280E+00
DAV:   8    -0.489523344393E+03   -0.47575E-03   -0.43871E-02  4464   0.615E-01    0.230E+00
DAV:   9    -0.489520400215E+03    0.29442E-02   -0.14355E-02  3912   0.361E-01    0.135E+00
DAV:  10    -0.489519772144E+03    0.62807E-03   -0.94146E-03  3564   0.298E-01    0.387E-01
DAV:  11    -0.489519867096E+03   -0.94952E-04   -0.19722E-03  4104   0.146E-01    0.270E-01
DAV:  12    -0.489519878088E+03   -0.10992E-04   -0.37097E-04  4356   0.588E-02    0.228E-01
DAV:  13    -0.489519879614E+03   -0.15256E-05   -0.77660E-05  3132   0.323E-02
   2 F= -.48951988E+03 E0= -.48951988E+03  d E =-.243523E+01  mag=     0.0000
       N       E                     dE             d eps       ncg     rms          rms(c)
DAV:   1    -0.483164356534E+03    0.63555E+01   -0.43917E+02  2892   0.686E+01    0.157E+01
DAV:   2    -0.491621043022E+03   -0.84567E+01   -0.92783E+01  3276   0.273E+01    0.148E+01
DAV:   3    -0.491881351244E+03   -0.26031E+00   -0.45302E+00  4032   0.701E+00    0.851E+00
DAV:   4    -0.491812680606E+03    0.68671E-01   -0.54687E-01  3672   0.290E+00    0.813E+00
DAV:   5    -0.491773483894E+03    0.39197E-01   -0.20737E-01  3720   0.157E+00    0.458E+00
DAV:   6    -0.491766909351E+03    0.65745E-02   -0.10658E-01  3636   0.128E+00    0.204E+00
DAV:   7    -0.491768063377E+03   -0.11540E-02   -0.56317E-02  3924   0.817E-01    0.146E+00
DAV:   8    -0.491767990331E+03    0.73046E-04   -0.10106E-02  4452   0.281E-01    0.116E+00
DAV:   9    -0.491766357125E+03    0.16332E-02   -0.44597E-03  3816   0.227E-01    0.735E-01
DAV:  10    -0.491766139232E+03    0.21789E-03   -0.16538E-03  3612   0.127E-01    0.432E-01
DAV:  11    -0.491766056389E+03    0.82843E-04   -0.90314E-04  3768   0.107E-01    0.139E-01
DAV:  12    -0.491766073492E+03   -0.17102E-04   -0.27584E-04  3840   0.564E-02    0.139E-01
DAV:  13    -0.491766072059E+03    0.14329E-05   -0.34498E-05  2448   0.209E-02
   3 F= -.49176607E+03 E0= -.49176607E+03  d E =-.468142E+01  mag=     0.0000
       N       E                     dE             d eps       ncg     rms          rms(c)
DAV:   1    -0.489383533800E+03    0.23825E+01   -0.33987E+02  2592   0.527E+01    0.135E+01
DAV:   2    -0.492712579532E+03   -0.33290E+01   -0.38975E+01  3816   0.200E+01    0.118E+01
DAV:   3    -0.492826730725E+03   -0.11415E+00   -0.27327E+00  3900   0.589E+00    0.656E+00
DAV:   4    -0.492800957226E+03    0.25773E-01   -0.47394E-01  3708   0.272E+00    0.597E+00
DAV:   5    -0.492759261174E+03    0.41696E-01   -0.18901E-01  3516   0.154E+00    0.290E+00
DAV:   6    -0.492757645912E+03    0.16153E-02   -0.92484E-02  4008   0.953E-01    0.138E+00
DAV:   7    -0.492759474644E+03   -0.18287E-02   -0.28878E-02  3888   0.525E-01    0.103E+00
DAV:   8    -0.492759382917E+03    0.91727E-04   -0.50118E-03  4428   0.197E-01    0.803E-01
DAV:   9    -0.492757948739E+03    0.14342E-02   -0.46058E-03  3228   0.202E-01    0.271E-01
DAV:  10    -0.492758000277E+03   -0.51538E-04   -0.20648E-03  3840   0.142E-01    0.147E-01
DAV:  11    -0.492758015690E+03   -0.15412E-04   -0.35915E-04  3792   0.637E-02    0.128E-01
DAV:  12    -0.492758004909E+03    0.10781E-04   -0.46341E-05  2760   0.264E-02    0.916E-02
DAV:  13    -0.492757999256E+03    0.56535E-05   -0.73164E-05  2916   0.252E-02
   4 F= -.49275800E+03 E0= -.49275800E+03  d E =-.991927E+00  mag=     0.0000
       N       E                     dE             d eps       ncg     rms          rms(c)
DAV:   1    -0.492735468913E+03    0.22536E-01   -0.30101E+00  2436   0.494E+00    0.134E+00
DAV:   2    -0.492768394487E+03   -0.32926E-01   -0.37753E-01  3864   0.222E+00    0.979E-01
DAV:   3    -0.492768370206E+03    0.24281E-04   -0.19354E-02  3504   0.522E-01    0.475E-01
DAV:   4    -0.492768064713E+03    0.30549E-03   -0.34090E-03  3864   0.254E-01    0.441E-01
DAV:   5    -0.492767765138E+03    0.29957E-03   -0.15242E-03  3372   0.134E-01    0.174E-01
DAV:   6    -0.492767786721E+03   -0.21583E-04   -0.76526E-04  4104   0.771E-02    0.881E-02
DAV:   7    -0.492767798662E+03   -0.11941E-04   -0.12424E-04  3528   0.393E-02    0.691E-02
DAV:   8    -0.492767796172E+03    0.24901E-05   -0.16663E-05  2064   0.165E-02
   5 F= -.49276780E+03 E0= -.49276780E+03  d E =-.100172E+01  mag=     0.0000
       N       E                     dE             d eps       ncg     rms          rms(c)
DAV:   1    -0.491570520083E+03    0.11973E+01   -0.11679E+02  2712   0.343E+01    0.657E+00
DAV:   2    -0.493175901917E+03   -0.16054E+01   -0.17189E+01  3744   0.134E+01    0.391E+00
DAV:   3    -0.493198121394E+03   -0.22219E-01   -0.70150E-01  3876   0.285E+00    0.256E+00
DAV:   4    -0.493189088233E+03    0.90332E-02   -0.10790E-01  4044   0.120E+00    0.223E+00
DAV:   5    -0.493181342801E+03    0.77454E-02   -0.33131E-02  3672   0.585E-01    0.123E+00
DAV:   6    -0.493179748502E+03    0.15943E-02   -0.20564E-02  3972   0.491E-01    0.423E-01
DAV:   7    -0.493180571310E+03   -0.82281E-03   -0.92268E-03  3876   0.303E-01    0.373E-01
DAV:   8    -0.493180680487E+03   -0.10918E-03   -0.18121E-03  4476   0.121E-01    0.308E-01
DAV:   9    -0.493180546916E+03    0.13357E-03   -0.61309E-04  3840   0.799E-02    0.168E-01
DAV:  10    -0.493180532741E+03    0.14175E-04   -0.19875E-04  3696   0.488E-02    0.104E-01
DAV:  11    -0.493180540304E+03   -0.75633E-05   -0.61937E-05  3072   0.282E-02
   6 F= -.49318054E+03 E0= -.49318054E+03  d E =-.412744E+00  mag=    -0.0000
       N       E                     dE             d eps       ncg     rms          rms(c)
DAV:   1    -0.493081908242E+03    0.98624E-01   -0.85785E+00  2520   0.917E+00    0.176E+00
DAV:   2    -0.493200684632E+03   -0.11878E+00   -0.12743E+00  3780   0.374E+00    0.107E+00
DAV:   3    -0.493201793485E+03   -0.11089E-02   -0.45608E-02  3732   0.752E-01    0.692E-01
DAV:   4    -0.493201060090E+03    0.73339E-03   -0.75080E-03  4056   0.329E-01    0.610E-01
DAV:   5    -0.493200513280E+03    0.54681E-03   -0.22595E-03  3624   0.156E-01    0.339E-01
DAV:   6    -0.493200382507E+03    0.13077E-03   -0.14937E-03  3804   0.136E-01    0.111E-01
DAV:   7    -0.493200447781E+03   -0.65274E-04   -0.76476E-04  3780   0.837E-02    0.103E-01
DAV:   8    -0.493200458726E+03   -0.10944E-04   -0.13610E-04  4212   0.343E-02    0.851E-02
DAV:   9    -0.493200448405E+03    0.10320E-04   -0.38966E-05  2376   0.224E-02    0.462E-02
DAV:  10    -0.493200447353E+03    0.10521E-05   -0.14609E-05  2028   0.159E-02
   7 F= -.49320045E+03 E0= -.49320045E+03  d E =-.432651E+00  mag=     0.0000
       N       E                     dE             d eps       ncg     rms          rms(c)
DAV:   1    -0.492018087558E+03    0.11824E+01   -0.12226E+02  2640   0.333E+01    0.636E+00
DAV:   2    -0.493443636465E+03   -0.14255E+01   -0.15236E+01  3744   0.130E+01    0.429E+00
DAV:   3    -0.493457305819E+03   -0.13669E-01   -0.60318E-01  3744   0.275E+00    0.267E+00
DAV:   4    -0.493447755802E+03    0.95500E-02   -0.10514E-01  4200   0.130E+00    0.232E+00
DAV:   5    -0.493439068882E+03    0.86869E-02   -0.34664E-02  3672   0.650E-01    0.120E+00
DAV:   6    -0.493438099278E+03    0.96960E-03   -0.18878E-02  3972   0.464E-01    0.503E-01
DAV:   7    -0.493438791160E+03   -0.69188E-03   -0.86997E-03  3948   0.288E-01    0.374E-01
DAV:   8    -0.493438861962E+03   -0.70802E-04   -0.15143E-03  4464   0.119E-01    0.287E-01
DAV:   9    -0.493438709205E+03    0.15276E-03   -0.63089E-04  3732   0.872E-02    0.164E-01
DAV:  10    -0.493438711182E+03   -0.19775E-05   -0.21075E-04  3768   0.492E-02    0.103E-01
DAV:  11    -0.493438717910E+03   -0.67276E-05   -0.45177E-05  2484   0.269E-02
   8 F= -.49343872E+03 E0= -.49343872E+03  d E =-.238271E+00  mag=     0.0000
       N       E                     dE             d eps       ncg     rms          rms(c)
DAV:   1    -0.493438614625E+03    0.96557E-04   -0.10620E-02  2592   0.313E-01    0.660E-02
DAV:   2    -0.493438751215E+03   -0.13659E-03   -0.14425E-03  3768   0.130E-01    0.450E-02
DAV:   3    -0.493438751192E+03    0.23181E-07   -0.47469E-05  2832   0.263E-02
   9 F= -.49343875E+03 E0= -.49343875E+03  d E =-.238304E+00  mag=     0.0000
       N       E                     dE             d eps       ncg     rms          rms(c)
DAV:   1    -0.492835141843E+03    0.60361E+00   -0.53860E+01  2304   0.231E+01    0.414E+00
DAV:   2    -0.493562101199E+03   -0.72696E+00   -0.77702E+00  3756   0.958E+00    0.276E+00
DAV:   3    -0.493573093313E+03   -0.10992E-01   -0.33089E-01  3672   0.202E+00    0.164E+00
DAV:   4    -0.493568929298E+03    0.41640E-02   -0.56843E-02  4260   0.920E-01    0.150E+00
DAV:   5    -0.493565390992E+03    0.35383E-02   -0.13815E-02  3744   0.374E-01    0.883E-01
DAV:   6    -0.493563834626E+03    0.15564E-02   -0.83097E-03  3576   0.327E-01    0.315E-01
DAV:   7    -0.493564218313E+03   -0.38369E-03   -0.45544E-03  3912   0.194E-01    0.231E-01
DAV:   8    -0.493564274487E+03   -0.56174E-04   -0.82360E-04  4440   0.865E-02    0.174E-01
DAV:   9    -0.493564225314E+03    0.49173E-04   -0.20774E-04  3756   0.482E-02    0.109E-01
DAV:  10    -0.493564223372E+03    0.19416E-05   -0.68536E-05  3144   0.270E-02
  10 F= -.49356422E+03 E0= -.49356422E+03  d E =-.125472E+00  mag=    -0.0000
       N       E                     dE             d eps       ncg     rms          rms(c)
DAV:   1    -0.493550172964E+03    0.14052E-01   -0.12279E+00  2376   0.347E+00    0.613E-01
DAV:   2    -0.493566656979E+03   -0.16484E-01   -0.17598E-01  3792   0.144E+00    0.414E-01
DAV:   3    -0.493566834648E+03   -0.17767E-03   -0.65411E-03  3684   0.283E-01    0.254E-01
DAV:   4    -0.493566717819E+03    0.11683E-03   -0.11878E-03  4296   0.131E-01    0.230E-01
DAV:   5    -0.493566639584E+03    0.78235E-04   -0.29691E-04  3540   0.542E-02    0.135E-01
DAV:   6    -0.493566606028E+03    0.33556E-04   -0.19083E-04  3504   0.496E-02    0.489E-02
DAV:   7    -0.493566615344E+03   -0.93156E-05   -0.10714E-04  3432   0.295E-02    0.359E-02
DAV:   8    -0.493566615858E+03   -0.51451E-06   -0.81073E-06  1740   0.146E-02
  11 F= -.49356662E+03 E0= -.49356662E+03  d E =-.127865E+00  mag=    -0.0000
       N       E                     dE             d eps       ncg     rms          rms(c)
DAV:   1    -0.493199024976E+03    0.36759E+00   -0.37279E+01  2304   0.184E+01    0.365E+00
DAV:   2    -0.493641785311E+03   -0.44276E+00   -0.47267E+00  3804   0.742E+00    0.216E+00
DAV:   3    -0.493644217838E+03   -0.24325E-02   -0.16027E-01  3840   0.142E+00    0.136E+00
DAV:   4    -0.493640170580E+03    0.40473E-02   -0.27083E-02  4260   0.670E-01    0.115E+00
DAV:   5    -0.493637812097E+03    0.23585E-02   -0.80398E-03  3600   0.310E-01    0.652E-01
DAV:   6    -0.493636798029E+03    0.10141E-02   -0.49652E-03  3768   0.255E-01    0.253E-01
DAV:   7    -0.493637053317E+03   -0.25529E-03   -0.28591E-03  3780   0.153E-01    0.179E-01
DAV:   8    -0.493637092599E+03   -0.39282E-04   -0.49023E-04  4440   0.659E-02    0.144E-01
DAV:   9    -0.493637065608E+03    0.26991E-04   -0.12219E-04  3612   0.391E-02    0.877E-02
DAV:  10    -0.493637065962E+03   -0.35403E-06   -0.30162E-05  2148   0.213E-02
  12 F= -.49363707E+03 E0= -.49363707E+03  d E =-.704501E-01  mag=     0.0000
       N       E                     dE             d eps       ncg     rms          rms(c)
DAV:   1    -0.493636518818E+03    0.54679E-03   -0.55440E-02  2472   0.720E-01    0.135E-01
DAV:   2    -0.493637204943E+03   -0.68613E-03   -0.72800E-03  3816   0.300E-01    0.871E-02
DAV:   3    -0.493637206472E+03   -0.15291E-05   -0.23296E-04  3804   0.534E-02    0.599E-02
DAV:   4    -0.493637197215E+03    0.92568E-05   -0.25687E-05  2280   0.261E-02
  13 F= -.49363720E+03 E0= -.49363720E+03  d E =-.705814E-01  mag=     0.0000
       N       E                     dE             d eps       ncg     rms          rms(c)
DAV:   1    -0.493446464775E+03    0.19074E+00   -0.16852E+01  2304   0.129E+01    0.223E+00
DAV:   2    -0.493674830146E+03   -0.22837E+00   -0.24012E+00  3744   0.518E+00    0.130E+00
DAV:   3    -0.493677817191E+03   -0.29870E-02   -0.84921E-02  3864   0.974E-01    0.839E-01
DAV:   4    -0.493676493567E+03    0.13236E-02   -0.13592E-02  4368   0.447E-01    0.727E-01
DAV:   5    -0.493675671450E+03    0.82212E-03   -0.29560E-03  3696   0.175E-01    0.446E-01
DAV:   6    -0.493675195635E+03    0.47581E-03   -0.21957E-03  3432   0.172E-01    0.144E-01
DAV:   7    -0.493675274005E+03   -0.78369E-04   -0.11582E-03  3768   0.104E-01    0.109E-01
DAV:   8    -0.493675284993E+03   -0.10988E-04   -0.17711E-04  4428   0.415E-02    0.879E-02
DAV:   9    -0.493675273170E+03    0.11823E-04   -0.31146E-05  2268   0.230E-02    0.564E-02
DAV:  10    -0.493675271088E+03    0.20821E-05   -0.14027E-05  1824   0.169E-02
  14 F= -.49367527E+03 E0= -.49367527E+03  d E =-.380739E-01  mag=     0.0000
       N       E                     dE             d eps       ncg     rms          rms(c)
DAV:   1    -0.493664060318E+03    0.11213E-01   -0.96027E-01  2400   0.304E+00    0.534E-01
DAV:   2    -0.493677072235E+03   -0.13012E-01   -0.13657E-01  3732   0.123E+00    0.310E-01
DAV:   3    -0.493677215059E+03   -0.14282E-03   -0.45946E-03  3864   0.231E-01    0.201E-01
DAV:   4    -0.493677133273E+03    0.81786E-04   -0.73761E-04  4416   0.106E-01    0.176E-01
DAV:   5    -0.493677086038E+03    0.47234E-04   -0.16167E-04  3624   0.417E-02    0.109E-01
DAV:   6    -0.493677057974E+03    0.28065E-04   -0.12959E-04  3264   0.419E-02    0.338E-02
DAV:   7    -0.493677061977E+03   -0.40029E-05   -0.64359E-05  2976   0.257E-02
  15 F= -.49367706E+03 E0= -.49367706E+03  d E =-.398648E-01  mag=    -0.0000
       N       E                     dE             d eps       ncg     rms          rms(c)
DAV:   1    -0.493599723409E+03    0.77335E-01   -0.10701E+01  2304   0.930E+00    0.190E+00
DAV:   2    -0.493699606644E+03   -0.99883E-01   -0.10585E+00  3720   0.353E+00    0.104E+00
DAV:   3    -0.493700147558E+03   -0.54091E-03   -0.38468E-02  3744   0.666E-01    0.663E-01
DAV:   4    -0.493699322039E+03    0.82552E-03   -0.71570E-03  4224   0.313E-01    0.544E-01
DAV:   5    -0.493698680524E+03    0.64151E-03   -0.18312E-03  3408   0.144E-01    0.303E-01
DAV:   6    -0.493698478408E+03    0.20212E-03   -0.13062E-03  3864   0.117E-01    0.106E-01
DAV:   7    -0.493698527333E+03   -0.48925E-04   -0.57360E-04  3840   0.705E-02    0.977E-02
DAV:   8    -0.493698531787E+03   -0.44541E-05   -0.85758E-05  3504   0.287E-02
  16 F= -.49369853E+03 E0= -.49369853E+03  d E =-.214698E-01  mag=     0.0000
       N       E                     dE             d eps       ncg     rms          rms(c)
DAV:   1    -0.493695350450E+03    0.31769E-02   -0.43098E-01  2400   0.186E+00    0.407E-01
DAV:   2    -0.493699351793E+03   -0.40013E-02   -0.42312E-02  3720   0.700E-01    0.200E-01
DAV:   3    -0.493699369582E+03   -0.17789E-04   -0.14688E-03  3768   0.131E-01    0.127E-01
DAV:   4    -0.493699335827E+03    0.33755E-04   -0.27010E-04  4212   0.612E-02    0.105E-01
DAV:   5    -0.493699315990E+03    0.19836E-04   -0.63292E-05  3072   0.273E-02    0.590E-02
DAV:   6    -0.493699308018E+03    0.79728E-05   -0.47629E-05  2544   0.238E-02
  17 F= -.49369931E+03 E0= -.49369931E+03  d E =-.222460E-01  mag=    -0.0000
       N       E                     dE             d eps       ncg     rms          rms(c)
DAV:   1    -0.493640759141E+03    0.58557E-01   -0.83039E+00  2304   0.792E+00    0.161E+00
DAV:   2    -0.493712855510E+03   -0.72096E-01   -0.76653E-01  3768   0.298E+00    0.925E-01
DAV:   3    -0.493713425297E+03   -0.56979E-03   -0.28113E-02  3792   0.570E-01    0.552E-01
DAV:   4    -0.493712816639E+03    0.60866E-03   -0.51499E-03  4176   0.273E-01    0.471E-01
DAV:   5    -0.493712435848E+03    0.38079E-03   -0.14259E-03  3636   0.130E-01    0.253E-01
DAV:   6    -0.493712311912E+03    0.12394E-03   -0.78303E-04  3684   0.960E-02    0.854E-02
DAV:   7    -0.493712344070E+03   -0.32158E-04   -0.36980E-04  3828   0.584E-02    0.765E-02
DAV:   8    -0.493712346336E+03   -0.22656E-05   -0.39794E-05  2688   0.239E-02
  18 F= -.49371235E+03 E0= -.49371235E+03  d E =-.130383E-01  mag=     0.0000
       N       E                     dE             d eps       ncg     rms          rms(c)
DAV:   1    -0.493711313969E+03    0.10301E-02   -0.14577E-01  2400   0.105E+00    0.234E-01
DAV:   2    -0.493712590014E+03   -0.12760E-02   -0.13519E-02  3780   0.396E-01    0.118E-01
DAV:   3    -0.493712603800E+03   -0.13785E-04   -0.51573E-04  3828   0.770E-02    0.689E-02
DAV:   4    -0.493712593271E+03    0.10529E-04   -0.80673E-05  3192   0.374E-02    0.620E-02
DAV:   5    -0.493712588621E+03    0.46502E-05   -0.17567E-05  1884   0.211E-02
  19 F= -.49371259E+03 E0= -.49371259E+03  d E =-.132806E-01  mag=    -0.0000
       N       E                     dE             d eps       ncg     rms          rms(c)
DAV:   1    -0.493665216696E+03    0.47377E-01   -0.67568E+00  2304   0.703E+00    0.136E+00
DAV:   2    -0.493722159536E+03   -0.56943E-01   -0.59729E-01  3720   0.258E+00    0.771E-01
DAV:   3    -0.493722716103E+03   -0.55657E-03   -0.21124E-02  3936   0.482E-01    0.490E-01
DAV:   4    -0.493722339299E+03    0.37680E-03   -0.39117E-03  4224   0.219E-01    0.385E-01
DAV:   5    -0.493722054161E+03    0.28514E-03   -0.11605E-03  3504   0.114E-01    0.184E-01
DAV:   6    -0.493722039503E+03    0.14657E-04   -0.58710E-04  3900   0.773E-02    0.726E-02
DAV:   7    -0.493722048077E+03   -0.85739E-05   -0.21252E-04  3672   0.487E-02    0.676E-02
DAV:   8    -0.493722048582E+03   -0.50511E-06   -0.16754E-05  1944   0.183E-02
  20 F= -.49372205E+03 E0= -.49372205E+03  d E =-.945996E-02  mag=     0.0000
       N       E                     dE             d eps       ncg     rms          rms(c)
DAV:   1    -0.493719065469E+03    0.29826E-02   -0.40442E-01  2400   0.173E+00    0.345E-01
DAV:   2    -0.493722501809E+03   -0.34363E-02   -0.35916E-02  3636   0.632E-01    0.190E-01
DAV:   3    -0.493722532636E+03   -0.30827E-04   -0.12531E-03  3984   0.119E-01    0.121E-01
DAV:   4    -0.493722505427E+03    0.27209E-04   -0.20624E-04  4200   0.528E-02    0.949E-02
DAV:   5    -0.493722489020E+03    0.16407E-04   -0.62067E-05  3000   0.282E-02    0.458E-02
DAV:   6    -0.493722487586E+03    0.14339E-05   -0.30655E-05  2136   0.200E-02
  21 F= -.49372249E+03 E0= -.49372249E+03  d E =-.989896E-02  mag=     0.0000
       N       E                     dE             d eps       ncg     rms          rms(c)
DAV:   1    -0.493680116891E+03    0.42372E-01   -0.70831E+00  2304   0.671E+00    0.135E+00
DAV:   2    -0.493728480194E+03   -0.48363E-01   -0.51776E-01  3732   0.242E+00    0.761E-01
DAV:   3    -0.493729331317E+03   -0.85112E-03   -0.23051E-02  3864   0.486E-01    0.455E-01
DAV:   4    -0.493729065811E+03    0.26551E-03   -0.44143E-03  4392   0.235E-01    0.391E-01
DAV:   5    -0.493728859876E+03    0.20594E-03   -0.94761E-04  3792   0.950E-02    0.238E-01
DAV:   6    -0.493728714674E+03    0.14520E-03   -0.55602E-04  3420   0.903E-02    0.723E-02
DAV:   7    -0.493728740872E+03   -0.26198E-04   -0.31242E-04  3720   0.516E-02    0.551E-02
DAV:   8    -0.493728742428E+03   -0.15569E-05   -0.20446E-05  2172   0.199E-02
  22 F= -.49372874E+03 E0= -.49372874E+03  d E =-.625484E-02  mag=    -0.0000
       N       E                     dE             d eps       ncg     rms          rms(c)
DAV:   1    -0.493728694026E+03    0.46845E-04   -0.70538E-03  2556   0.214E-01    0.361E-02
DAV:   2    -0.493728746717E+03   -0.52691E-04   -0.56996E-04  3828   0.807E-02    0.286E-02
DAV:   3    -0.493728746692E+03    0.25066E-07   -0.17324E-05  2112   0.171E-02
  23 F= -.49372875E+03 E0= -.49372875E+03  d E =-.625911E-02  mag=    -0.0000
       N       E                     dE             d eps       ncg     rms          rms(c)
DAV:   1    -0.493699381123E+03    0.29366E-01   -0.58329E+00  2304   0.586E+00    0.108E+00
DAV:   2    -0.493734633739E+03   -0.35253E-01   -0.36895E-01  3696   0.200E+00    0.560E-01
DAV:   3    -0.493735402798E+03   -0.76906E-03   -0.16339E-02  4008   0.369E-01    0.379E-01
DAV:   4    -0.493735197247E+03    0.20555E-03   -0.23388E-03  4104   0.156E-01    0.297E-01
DAV:   5    -0.493735076548E+03    0.12070E-03   -0.57126E-04  3912   0.724E-02    0.173E-01
DAV:   6    -0.493734988843E+03    0.87704E-04   -0.34347E-04  3204   0.684E-02    0.538E-02
DAV:   7    -0.493735004617E+03   -0.15774E-04   -0.17629E-04  3744   0.396E-02    0.429E-02
DAV:   8    -0.493735005531E+03   -0.91367E-06   -0.10640E-05  1776   0.145E-02
  24 F= -.49373501E+03 E0= -.49373501E+03  d E =-.625884E-02  mag=     0.0000
       N       E                     dE             d eps       ncg     rms          rms(c)
DAV:   1    -0.493727758694E+03    0.72459E-02   -0.13339E+00  2376   0.280E+00    0.522E-01
DAV:   2    -0.493735757687E+03   -0.79990E-02   -0.83513E-02  3684   0.959E-01    0.266E-01
DAV:   3    -0.493735886177E+03   -0.12849E-03   -0.32506E-03  4068   0.176E-01    0.181E-01
DAV:   4    -0.493735836377E+03    0.49800E-04   -0.51626E-04  4152   0.727E-02    0.141E-01
DAV:   5    -0.493735812961E+03    0.23415E-04   -0.11706E-04  3600   0.340E-02    0.844E-02
DAV:   6    -0.493735791619E+03    0.21342E-04   -0.85601E-05  2952   0.337E-02    0.256E-02
DAV:   7    -0.493735794484E+03   -0.28650E-05   -0.31576E-05  2076   0.196E-02
  25 F= -.49373579E+03 E0= -.49373579E+03  d E =-.704779E-02  mag=     0.0000
       N       E                     dE             d eps       ncg     rms          rms(c)
DAV:   1    -0.493704169420E+03    0.31622E-01   -0.59170E+00  2304   0.592E+00    0.111E+00
DAV:   2    -0.493740488402E+03   -0.36319E-01   -0.38453E-01  3660   0.209E+00    0.575E-01
DAV:   3    -0.493741377238E+03   -0.88884E-03   -0.18870E-02  4080   0.410E-01    0.376E-01
DAV:   4    -0.493741177727E+03    0.19951E-03   -0.27798E-03  4236   0.184E-01    0.298E-01
DAV:   5    -0.493741016438E+03    0.16129E-03   -0.61923E-04  3696   0.848E-02    0.174E-01
DAV:   6    -0.493740914618E+03    0.10182E-03   -0.37753E-04  3600   0.803E-02    0.584E-02
DAV:   7    -0.493740937781E+03   -0.23163E-04   -0.25827E-04  3504   0.463E-02    0.536E-02
DAV:   8    -0.493740938255E+03   -0.47389E-06   -0.15202E-05  1884   0.192E-02
  26 F= -.49374094E+03 E0= -.49374094E+03  d E =-.514377E-02  mag=    -0.0000
       N       E                     dE             d eps       ncg     rms          rms(c)
DAV:   1    -0.493739487958E+03    0.14498E-02   -0.27215E-01  2400   0.126E+00    0.245E-01
DAV:   2    -0.493741150697E+03   -0.16627E-02   -0.17542E-02  3624   0.449E-01    0.120E-01
DAV:   3    -0.493741182615E+03   -0.31917E-04   -0.77122E-04  4080   0.873E-02    0.789E-02
DAV:   4    -0.493741171329E+03    0.11286E-04   -0.11182E-04  3588   0.393E-02    0.656E-02
DAV:   5    -0.493741165743E+03    0.55860E-05   -0.19271E-05  2004   0.198E-02
  27 F= -.49374117E+03 E0= -.49374117E+03  d E =-.537126E-02  mag=    -0.0000
       N       E                     dE             d eps       ncg     rms          rms(c)
DAV:   1    -0.493713136314E+03    0.28035E-01   -0.52819E+00  2304   0.544E+00    0.936E-01
DAV:   2    -0.493745347512E+03   -0.32211E-01   -0.33947E-01  3816   0.196E+00    0.496E-01
DAV:   3    -0.493746111893E+03   -0.76438E-03   -0.14586E-02  4128   0.340E-01    0.335E-01
DAV:   4    -0.493745935356E+03    0.17654E-03   -0.21081E-03  4080   0.146E-01    0.263E-01
DAV:   5    -0.493745859760E+03    0.75596E-04   -0.54114E-04  3936   0.710E-02    0.151E-01
DAV:   6    -0.493745800701E+03    0.59059E-04   -0.26268E-04  3288   0.639E-02    0.449E-02
DAV:   7    -0.493745814135E+03   -0.13434E-04   -0.15164E-04  3768   0.362E-02    0.362E-02
DAV:   8    -0.493745814509E+03   -0.37472E-06   -0.10367E-05  1752   0.147E-02
  28 F= -.49374581E+03 E0= -.49374581E+03  d E =-.464877E-02  mag=     0.0000
       N       E                     dE             d eps       ncg     rms          rms(c)
DAV:   1    -0.493742875706E+03    0.29384E-02   -0.54251E-01  2304   0.175E+00    0.306E-01
DAV:   2    -0.493746143246E+03   -0.32675E-02   -0.34291E-02  3780   0.634E-01    0.158E-01
DAV:   3    -0.493746198836E+03   -0.55590E-04   -0.12790E-03  4092   0.110E-01    0.107E-01
DAV:   4    -0.493746177925E+03    0.20911E-04   -0.18578E-04  3912   0.468E-02    0.850E-02
DAV:   5    -0.493746170408E+03    0.75165E-05   -0.36773E-05  2424   0.232E-02
  29 F= -.49374617E+03 E0= -.49374617E+03  d E =-.500467E-02  mag=     0.0000
       N       E                     dE             d eps       ncg     rms          rms(c)
DAV:   1    -0.493720177790E+03    0.26000E-01   -0.47143E+00  2304   0.514E+00    0.876E-01
DAV:   2    -0.493749385930E+03   -0.29208E-01   -0.30791E-01  3816   0.192E+00    0.479E-01
DAV:   3    -0.493750091427E+03   -0.70550E-03   -0.13684E-02  4176   0.338E-01    0.318E-01
DAV:   4    -0.493749941060E+03    0.15037E-03   -0.19449E-03  3984   0.147E-01    0.243E-01
DAV:   5    -0.493749844386E+03    0.96674E-04   -0.56345E-04  3756   0.794E-02    0.123E-01
DAV:   6    -0.493749818653E+03    0.25733E-04   -0.26756E-04  3876   0.569E-02    0.467E-02
DAV:   7    -0.493749830574E+03   -0.11921E-04   -0.12661E-04  3624   0.348E-02    0.394E-02
DAV:   8    -0.493749831350E+03   -0.77625E-06   -0.10143E-05  1800   0.148E-02
  30 F= -.49374983E+03 E0= -.49374983E+03  d E =-.366094E-02  mag=    -0.0000
       N       E                     dE             d eps       ncg     rms          rms(c)
DAV:   1    -0.493747477611E+03    0.23530E-02   -0.41788E-01  2340   0.153E+00    0.268E-01
DAV:   2    -0.493750054090E+03   -0.25765E-02   -0.27047E-02  3840   0.568E-01    0.141E-01
DAV:   3    -0.493750094210E+03   -0.40120E-04   -0.99613E-04  4104   0.981E-02    0.936E-02
DAV:   4    -0.493750077768E+03    0.16442E-04   -0.14667E-04  3792   0.434E-02    0.720E-02
DAV:   5    -0.493750069690E+03    0.80783E-05   -0.37509E-05  2568   0.238E-02
  31 F= -.49375007E+03 E0= -.49375007E+03  d E =-.389928E-02  mag=    -0.0000
       N       E                     dE             d eps       ncg     rms          rms(c)
DAV:   1    -0.493723333331E+03    0.26744E-01   -0.47832E+00  2304   0.509E+00    0.880E-01
DAV:   2    -0.493752633507E+03   -0.29300E-01   -0.30999E-01  3816   0.187E+00    0.490E-01
DAV:   3    -0.493753424703E+03   -0.79120E-03   -0.14395E-02  4140   0.342E-01    0.307E-01
DAV:   4    -0.493753286109E+03    0.13859E-03   -0.21640E-03  4068   0.159E-01    0.252E-01
DAV:   5    -0.493753200746E+03    0.85363E-04   -0.56910E-04  3912   0.777E-02    0.136E-01
DAV:   6    -0.493753157915E+03    0.42831E-04   -0.26653E-04  3480   0.589E-02    0.488E-02
DAV:   7    -0.493753170881E+03   -0.12966E-04   -0.13101E-04  3648   0.347E-02    0.366E-02
DAV:   8    -0.493753171706E+03   -0.82528E-06   -0.96581E-06  1608   0.145E-02
  32 F= -.49375317E+03 E0= -.49375317E+03  d E =-.310202E-02  mag=     0.0000
       N       E                     dE             d eps       ncg     rms          rms(c)
DAV:   1    -0.493752278507E+03    0.89237E-03   -0.16069E-01  2388   0.933E-01    0.168E-01
DAV:   2    -0.493753259637E+03   -0.98113E-03   -0.10337E-02  3816   0.347E-01    0.870E-02
DAV:   3    -0.493753279185E+03   -0.19548E-04   -0.40643E-04  4092   0.622E-02    0.547E-02
DAV:   4    -0.493753272609E+03    0.65764E-05   -0.50073E-05  2892   0.290E-02
  33 F= -.49375327E+03 E0= -.49375327E+03  d E =-.320292E-02  mag=     0.0000
       N       E                     dE             d eps       ncg     rms          rms(c)
DAV:   1    -0.493732366088E+03    0.20913E-01   -0.37370E+00  2304   0.451E+00    0.766E-01
DAV:   2    -0.493755538973E+03   -0.23173E-01   -0.24389E-01  3840   0.165E+00    0.402E-01
DAV:   3    -0.493756013580E+03   -0.47461E-03   -0.99163E-03  4140   0.283E-01    0.271E-01
DAV:   4    -0.493755863468E+03    0.15011E-03   -0.14960E-03  3960   0.125E-01    0.207E-01
DAV:   5    -0.493755809351E+03    0.54117E-04   -0.45590E-04  3864   0.664E-02    0.105E-01
DAV:   6    -0.493755785315E+03    0.24036E-04   -0.18255E-04  3528   0.485E-02    0.377E-02
DAV:   7    -0.493755794404E+03   -0.90892E-05   -0.94446E-05  3300   0.294E-02
  34 F= -.49375579E+03 E0= -.49375579E+03  d E =-.252180E-02  mag=     0.0000
       N       E                     dE             d eps       ncg     rms          rms(c)
DAV:   1    -0.493754930114E+03    0.85520E-03   -0.15400E-01  2400   0.915E-01    0.173E-01
DAV:   2    -0.493755873656E+03   -0.94354E-03   -0.99590E-03  3828   0.334E-01    0.757E-02
DAV:   3    -0.493755891973E+03   -0.18317E-04   -0.37146E-04  4128   0.579E-02    0.489E-02
DAV:   4    -0.493755885990E+03    0.59825E-05   -0.41981E-05  2748   0.250E-02
  35 F= -.49375589E+03 E0= -.49375589E+03  d E =-.261338E-02  mag=     0.0000
       N       E                     dE             d eps       ncg     rms          rms(c)
DAV:   1    -0.493739489013E+03    0.16403E-01   -0.28016E+00  2304   0.400E+00    0.688E-01
DAV:   2    -0.493757240724E+03   -0.17752E-01   -0.19003E-01  3792   0.151E+00    0.403E-01
DAV:   3    -0.493757627281E+03   -0.38656E-03   -0.87163E-03  4080   0.281E-01    0.256E-01
DAV:   4    -0.493757514926E+03    0.11236E-03   -0.13206E-03  4068   0.130E-01    0.211E-01
DAV:   5    -0.493757447197E+03    0.67729E-04   -0.36162E-04  3864   0.601E-02    0.122E-01
DAV:   6    -0.493757404008E+03    0.43189E-04   -0.19208E-04  3468   0.573E-02    0.453E-02
DAV:   7    -0.493757416075E+03   -0.12068E-04   -0.13350E-04  3576   0.335E-02    0.332E-02
DAV:   8    -0.493757416636E+03   -0.56086E-06   -0.88175E-06  1728   0.142E-02
  36 F= -.49375742E+03 E0= -.49375742E+03  d E =-.153065E-02  mag=    -0.0000
       N       E                     dE             d eps       ncg     rms          rms(c)
DAV:   1    -0.493757257869E+03    0.15821E-03   -0.26890E-02  2400   0.391E-01    0.643E-02
DAV:   2    -0.493757426144E+03   -0.16828E-03   -0.18080E-03  3816   0.147E-01    0.415E-02
DAV:   3    -0.493757427456E+03   -0.13117E-05   -0.62826E-05  2964   0.280E-02
  37 F= -.49375743E+03 E0= -.49375743E+03  d E =-.154147E-02  mag=     0.0000
       N       E                     dE             d eps       ncg     rms          rms(c)
DAV:   1    -0.493748308467E+03    0.91177E-02   -0.18168E+00  2316   0.314E+00    0.577E-01
DAV:   2    -0.493758749891E+03   -0.10441E-01   -0.11037E-01  3780   0.113E+00    0.292E-01
DAV:   3    -0.493758907624E+03   -0.15773E-03   -0.44815E-03  4068   0.204E-01    0.196E-01
DAV:   4    -0.493758830668E+03    0.76956E-04   -0.66886E-04  4092   0.926E-02    0.153E-01
DAV:   5    -0.493758797586E+03    0.33082E-04   -0.18653E-04  3696   0.447E-02    0.879E-02
DAV:   6    -0.493758772479E+03    0.25106E-04   -0.86800E-05  3096   0.394E-02    0.349E-02
DAV:   7    -0.493758777444E+03   -0.49649E-05   -0.58987E-05  2724   0.240E-02
  38 F= -.49375878E+03 E0= -.49375878E+03  d E =-.134999E-02  mag=    -0.0000
       N       E                     dE             d eps       ncg     rms          rms(c)
DAV:   1    -0.493758472704E+03    0.29978E-03   -0.59154E-02  2400   0.569E-01    0.113E-01
DAV:   2    -0.493758819597E+03   -0.34689E-03   -0.36818E-03  3780   0.208E-01    0.508E-02
DAV:   3    -0.493758825403E+03   -0.58064E-05   -0.14272E-04  3828   0.372E-02    0.327E-02
DAV:   4    -0.493758822578E+03    0.28257E-05   -0.13832E-05  1944   0.176E-02
  39 F= -.49375882E+03 E0= -.49375882E+03  d E =-.139512E-02  mag=    -0.0000
       N       E                     dE             d eps       ncg     rms          rms(c)
DAV:   1    -0.493750069031E+03    0.87564E-02   -0.15365E+00  2328   0.302E+00    0.551E-01
DAV:   2    -0.493759786983E+03   -0.97180E-02   -0.10326E-01  3780   0.109E+00    0.311E-01
DAV:   3    -0.493759896537E+03   -0.10955E-03   -0.39700E-03  4008   0.202E-01    0.200E-01
DAV:   4    -0.493759823291E+03    0.73245E-04   -0.66478E-04  4056   0.923E-02    0.163E-01
DAV:   5    -0.493759778612E+03    0.44679E-04   -0.18197E-04  3552   0.450E-02    0.935E-02
DAV:   6    -0.493759757737E+03    0.20875E-04   -0.11726E-04  3444   0.381E-02    0.312E-02
DAV:   7    -0.493759762267E+03   -0.45293E-05   -0.52968E-05  2760   0.241E-02
  40 F= -.49375976E+03 E0= -.49375976E+03  d E =-.939689E-03  mag=    -0.0000
       N       E                     dE             d eps       ncg     rms          rms(c)
DAV:   1    -0.493759729710E+03    0.28027E-04   -0.54247E-03  2400   0.180E-01    0.251E-02
DAV:   2    -0.493759764770E+03   -0.35060E-04   -0.37303E-04  3768   0.650E-02    0.255E-02
DAV:   3    -0.493759764473E+03    0.29746E-06   -0.10136E-05  1872   0.130E-02
  41 F= -.49375976E+03 E0= -.49375976E+03  d E =-.941895E-03  mag=    -0.0000
       N       E                     dE             d eps       ncg     rms          rms(c)
DAV:   1    -0.493753891454E+03    0.58733E-02   -0.99910E-01  2304   0.247E+00    0.466E-01
DAV:   2    -0.493760598852E+03   -0.67074E-02   -0.70279E-02  3888   0.916E-01    0.228E-01
DAV:   3    -0.493760671741E+03   -0.72889E-04   -0.23551E-03  4008   0.151E-01    0.149E-01
DAV:   4    -0.493760622524E+03    0.49218E-04   -0.41080E-04  4224   0.700E-02    0.117E-01
DAV:   5    -0.493760604668E+03    0.17855E-04   -0.92698E-05  3216   0.333E-02    0.659E-02
DAV:   6    -0.493760593950E+03    0.10718E-04   -0.59006E-05  2700   0.257E-02    0.248E-02
DAV:   7    -0.493760595955E+03   -0.20046E-05   -0.17498E-05  1728   0.177E-02
  42 F= -.49376060E+03 E0= -.49376060E+03  d E =-.831482E-03  mag=     0.0000
       N       E                     dE             d eps       ncg     rms          rms(c)
DAV:   1    -0.493760134901E+03    0.45905E-03   -0.75173E-02  2400   0.679E-01    0.136E-01
DAV:   2    -0.493760644060E+03   -0.50916E-03   -0.53559E-03  3804   0.249E-01    0.603E-02
DAV:   3    -0.493760652424E+03   -0.83645E-05   -0.19867E-04  4032   0.436E-02    0.384E-02
DAV:   4    -0.493760647990E+03    0.44339E-05   -0.20179E-05  2184   0.198E-02
  43 F= -.49376065E+03 E0= -.49376065E+03  d E =-.883517E-03  mag=     0.0000
       N       E                     dE             d eps       ncg     rms          rms(c)
DAV:   1    -0.493756106744E+03    0.45457E-02   -0.84986E-01  2304   0.227E+00    0.460E-01
DAV:   2    -0.493761266011E+03   -0.51593E-02   -0.54602E-02  3684   0.807E-01    0.259E-01
DAV:   3    -0.493761340719E+03   -0.74708E-04   -0.23749E-03  3912   0.160E-01    0.156E-01
DAV:   4    -0.493761296650E+03    0.44069E-04   -0.36872E-04  4092   0.713E-02    0.126E-01
DAV:   5    -0.493761269874E+03    0.26777E-04   -0.11724E-04  3528   0.361E-02    0.674E-02
DAV:   6    -0.493761261090E+03    0.87839E-05   -0.55121E-05  2748   0.274E-02
  44 F= -.49376126E+03 E0= -.49376126E+03  d E =-.613100E-03  mag=    -0.0000
       N       E                     dE             d eps       ncg     rms          rms(c)
DAV:   1    -0.493761263476E+03    0.63974E-05   -0.18613E-04  2844   0.364E-02    0.217E-02
DAV:   2    -0.493761264168E+03   -0.69186E-06   -0.13416E-05  1752   0.150E-02
  45 F= -.49376126E+03 E0= -.49376126E+03  d E =-.616178E-03  mag=    -0.0000
       N       E                     dE             d eps       ncg     rms          rms(c)
DAV:   1    -0.493757509749E+03    0.37537E-02   -0.69958E-01  2328   0.208E+00    0.412E-01
DAV:   2    -0.493761814836E+03   -0.43051E-02   -0.45210E-02  3744   0.718E-01    0.221E-01
DAV:   3    -0.493761876618E+03   -0.61783E-04   -0.18945E-03  4032   0.132E-01    0.146E-01
DAV:   4    -0.493761837343E+03    0.39276E-04   -0.27335E-04  4032   0.586E-02    0.111E-01
DAV:   5    -0.493761816060E+03    0.21283E-04   -0.72019E-05  3108   0.298E-02    0.625E-02
DAV:   6    -0.493761804759E+03    0.11301E-04   -0.51855E-05  2592   0.284E-02    0.207E-02
DAV:   7    -0.493761806815E+03   -0.20561E-05   -0.20456E-05  1884   0.194E-02
  46 F= -.49376181E+03 E0= -.49376181E+03  d E =-.542647E-03  mag=     0.0000
       N       E                     dE             d eps       ncg     rms          rms(c)
DAV:   1    -0.493761708262E+03    0.96496E-04   -0.16503E-02  2400   0.321E-01    0.749E-02
DAV:   2    -0.493761820482E+03   -0.11222E-03   -0.11843E-03  3756   0.115E-01    0.306E-02
DAV:   3    -0.493761821796E+03   -0.13139E-05   -0.37397E-05  2532   0.213E-02
  47 F= -.49376182E+03 E0= -.49376182E+03  d E =-.557628E-03  mag=     0.0000
       N       E                     dE             d eps       ncg     rms          rms(c)
DAV:   1    -0.493758812936E+03    0.30075E-02   -0.57485E-01  2316   0.186E+00    0.368E-01
DAV:   2    -0.493762249876E+03   -0.34369E-02   -0.36184E-02  3696   0.654E-01    0.202E-01
DAV:   3    -0.493762319020E+03   -0.69144E-04   -0.17307E-03  4008   0.125E-01    0.134E-01
DAV:   4    -0.493762288572E+03    0.30448E-04   -0.25165E-04  4068   0.558E-02    0.102E-01
DAV:   5    -0.493762269267E+03    0.19305E-04   -0.62382E-05  3048   0.271E-02    0.591E-02
DAV:   6    -0.493762259504E+03    0.97636E-05   -0.49480E-05  2604   0.256E-02
  48 F= -.49376226E+03 E0= -.49376226E+03  d E =-.437708E-03  mag=     0.0000
       N       E                     dE             d eps       ncg     rms          rms(c)
DAV:   1    -0.493762217305E+03    0.51962E-04   -0.79039E-03  2508   0.221E-01    0.530E-02
DAV:   2    -0.493762274955E+03   -0.57650E-04   -0.61635E-04  3696   0.833E-02    0.216E-02
DAV:   3    -0.493762275736E+03   -0.78072E-06   -0.16735E-05  2004   0.158E-02
  49 F= -.49376228E+03 E0= -.49376228E+03  d E =-.453940E-03  mag=     0.0000
       N       E                     dE             d eps       ncg     rms          rms(c)
DAV:   1    -0.493760808698E+03    0.14663E-02   -0.23587E-01  2352   0.131E+00    0.257E-01
DAV:   2    -0.493762610739E+03   -0.18020E-02   -0.18901E-02  3696   0.477E-01    0.144E-01
DAV:   3    -0.493762636027E+03   -0.25289E-04   -0.74897E-04  3948   0.875E-02    0.941E-02
DAV:   4    -0.493762620170E+03    0.15857E-04   -0.10173E-04  3576   0.396E-02    0.754E-02
DAV:   5    -0.493762610021E+03    0.10150E-04   -0.20104E-05  1860   0.215E-02    0.463E-02
DAV:   6    -0.493762607296E+03    0.27243E-05   -0.58095E-05  2448   0.236E-02
  50 F= -.49376261E+03 E0= -.49376261E+03  d E =-.331561E-03  mag=     0.0000
       N       E                     dE             d eps       ncg     rms          rms(c)
DAV:   1    -0.493762576045E+03    0.33975E-04   -0.71420E-03  2400   0.228E-01    0.536E-02
DAV:   2    -0.493762632519E+03   -0.56473E-04   -0.60114E-04  3756   0.834E-02    0.234E-02
DAV:   3    -0.493762632871E+03   -0.35211E-06   -0.14769E-05  1968   0.158E-02
  51 F= -.49376263E+03 E0= -.49376263E+03  d E =-.357135E-03  mag=     0.0000
       N       E                     dE             d eps       ncg     rms          rms(c)
DAV:   1    -0.493761463337E+03    0.11692E-02   -0.19961E-01  2304   0.121E+00    0.244E-01
DAV:   2    -0.493762948097E+03   -0.14848E-02   -0.15516E-02  3708   0.436E-01    0.128E-01
DAV:   3    -0.493762968885E+03   -0.20789E-04   -0.64631E-04  3936   0.787E-02    0.864E-02
DAV:   4    -0.493762954052E+03    0.14833E-04   -0.82292E-05  3276   0.349E-02    0.686E-02
DAV:   5    -0.493762946499E+03    0.75537E-05   -0.15707E-05  1740   0.195E-02
  52 F= -.49376295E+03 E0= -.49376295E+03  d E =-.313628E-03  mag=    -0.0000
       N       E                     dE             d eps       ncg     rms          rms(c)
DAV:   1    -0.493760481601E+03    0.24725E-02   -0.33207E-01  2304   0.156E+00    0.317E-01
DAV:   2    -0.493762943485E+03   -0.24619E-02   -0.25793E-02  3660   0.557E-01    0.159E-01
DAV:   3    -0.493762986495E+03   -0.43010E-04   -0.11095E-03  3936   0.104E-01    0.105E-01
DAV:   4    -0.493762967611E+03    0.18884E-04   -0.17617E-04  4272   0.464E-02    0.817E-02
DAV:   5    -0.493762957576E+03    0.10035E-04   -0.23759E-05  1968   0.191E-02    0.539E-02
DAV:   6    -0.493762950377E+03    0.71989E-05   -0.50873E-05  2652   0.230E-02
  53 F= -.49376295E+03 E0= -.49376295E+03  d E =-.317506E-03  mag=     0.0000
       N       E                     dE             d eps       ncg     rms          rms(c)
DAV:   1    -0.493762443154E+03    0.51442E-03   -0.76349E-02  2400   0.749E-01    0.145E-01
DAV:   2    -0.493763012854E+03   -0.56970E-03   -0.59371E-03  3720   0.269E-01    0.811E-02
DAV:   3    -0.493763017759E+03   -0.49054E-05   -0.22638E-04  3816   0.478E-02    0.581E-02
DAV:   4    -0.493763010207E+03    0.75521E-05   -0.15247E-05  1968   0.202E-02
  54 F= -.49376301E+03 E0= -.49376301E+03  d E =-.377336E-03  mag=     0.0000
       N       E                     dE             d eps       ncg     rms          rms(c)
DAV:   1    -0.493762684991E+03    0.33277E-03   -0.65823E-02  2376   0.658E-01    0.155E-01
DAV:   2    -0.493763136040E+03   -0.45105E-03   -0.46460E-03  3768   0.240E-01    0.613E-02
DAV:   3    -0.493763139451E+03   -0.34112E-05   -0.14596E-04  3648   0.373E-02    0.429E-02
DAV:   4    -0.493763134621E+03    0.48295E-05   -0.95983E-06  1800   0.163E-02
  55 F= -.49376313E+03 E0= -.49376313E+03  d E =-.124414E-03  mag=    -0.0000
       N       E                     dE             d eps       ncg     rms          rms(c)
DAV:   1    -0.493759542965E+03    0.35965E-02   -0.58401E-01  2304   0.196E+00    0.408E-01
DAV:   2    -0.493763332636E+03   -0.37897E-02   -0.39134E-02  3768   0.687E-01    0.211E-01
DAV:   3    -0.493763367822E+03   -0.35186E-04   -0.14573E-03  3984   0.112E-01    0.148E-01
DAV:   4    -0.493763322961E+03    0.44861E-04   -0.21012E-04  4188   0.482E-02    0.102E-01
DAV:   5    -0.493763299494E+03    0.23467E-04   -0.65444E-05  2988   0.276E-02    0.495E-02
DAV:   6    -0.493763295993E+03    0.35011E-05   -0.29307E-05  2040   0.184E-02
  56 F= -.49376330E+03 E0= -.49376330E+03  d E =-.285786E-03  mag=    -0.0000
       N       E                     dE             d eps       ncg     rms          rms(c)
DAV:   1    -0.493763168040E+03    0.13145E-03   -0.33366E-02  2400   0.519E-01    0.117E-01
DAV:   2    -0.493763460605E+03   -0.29256E-03   -0.30874E-03  3660   0.187E-01    0.567E-02
DAV:   3    -0.493763464901E+03   -0.42968E-05   -0.12642E-04  3528   0.385E-02    0.329E-02
DAV:   4    -0.493763462166E+03    0.27351E-05   -0.11560E-05  1848   0.194E-02
  57 F= -.49376346E+03 E0= -.49376346E+03  d E =-.166173E-03  mag=     0.0000
       N       E                     dE             d eps       ncg     rms          rms(c)
DAV:   1    -0.493761686696E+03    0.17782E-02   -0.21851E-01  2328   0.133E+00    0.278E-01
DAV:   2    -0.493763572805E+03   -0.18861E-02   -0.19832E-02  3636   0.475E-01    0.159E-01
DAV:   3    -0.493763599708E+03   -0.26903E-04   -0.85283E-04  3912   0.967E-02    0.101E-01
DAV:   4    -0.493763581328E+03    0.18380E-04   -0.12699E-04  3660   0.448E-02    0.848E-02
DAV:   5    -0.493763571348E+03    0.99800E-05   -0.25740E-05  2088   0.227E-02
  58 F= -.49376357E+03 E0= -.49376357E+03  d E =-.275355E-03  mag=    -0.0000
       N       E                     dE             d eps       ncg     rms          rms(c)
DAV:   1    -0.493763536214E+03    0.45113E-04   -0.16780E-02  2448   0.340E-01    0.784E-02
DAV:   2    -0.493763649781E+03   -0.11357E-03   -0.11938E-03  3804   0.115E-01    0.346E-02
DAV:   3    -0.493763651001E+03   -0.12201E-05   -0.44441E-05  2772   0.226E-02
  59 F= -.49376365E+03 E0= -.49376365E+03  d E =-.796536E-04  mag=    -0.0000
       N       E                     dE             d eps       ncg     rms          rms(c)
DAV:   1    -0.493763395572E+03    0.25421E-03   -0.51734E-02  2400   0.593E-01    0.127E-01
DAV:   2    -0.493763755209E+03   -0.35964E-03   -0.37418E-03  3816   0.211E-01    0.735E-02
DAV:   3    -0.493763757353E+03   -0.21446E-05   -0.14759E-04  3744   0.353E-02    0.501E-02
DAV:   4    -0.493763749789E+03    0.75644E-05   -0.15128E-05  1872   0.175E-02
  60 F= -.49376375E+03 E0= -.49376375E+03  d E =-.178441E-03  mag=     0.0000
       N       E                     dE             d eps       ncg     rms          rms(c)
DAV:   1    -0.493763758295E+03   -0.94114E-06   -0.31325E-03  2400   0.209E-01    0.430E-02
DAV:   2    -0.493763827902E+03   -0.69607E-04   -0.77954E-04  3600   0.839E-02    0.344E-02
DAV:   3    -0.493763828787E+03   -0.88491E-06   -0.30458E-05  2376   0.217E-02
  61 F= -.49376383E+03 E0= -.49376383E+03  d E =-.789977E-04  mag=     0.0000
       N       E                     dE             d eps       ncg     rms          rms(c)
DAV:   1    -0.493763731123E+03    0.96779E-04   -0.66388E-03  2400   0.304E-01    0.600E-02
DAV:   2    -0.493763881689E+03   -0.15057E-03   -0.16663E-03  3840   0.123E-01    0.504E-02
DAV:   3    -0.493763883311E+03   -0.16220E-05   -0.63432E-05  2940   0.281E-02
  62 F= -.49376388E+03 E0= -.49376388E+03  d E =-.133522E-03  mag=    -0.0000
