       N       E                     dE             d eps       ncg     rms          rms(c)
DAV:   1    -0.299416425929E+03   -0.29942E+03   -0.12552E+03 28032   0.122E+02    0.337E+01
DAV:   2    -0.328011406742E+03   -0.28595E+02   -0.28965E+02 39368   0.591E+01    0.560E+01
DAV:   3    -0.331217047593E+03   -0.32056E+01   -0.21322E+01 46912   0.161E+01    0.707E+01
DAV:   4    -0.330658091508E+03    0.55896E+00   -0.43119E+00 39096   0.906E+00    0.172E+01
DAV:   5    -0.329700106354E+03    0.95799E+00   -0.35837E+00 37720   0.740E+00    0.979E+00
DAV:   6    -0.329787185989E+03   -0.87080E-01   -0.90667E-01 42320   0.344E+00    0.911E+00
DAV:   7    -0.329758187821E+03    0.28998E-01   -0.14935E-01 42952   0.183E+00    0.641E+00
DAV:   8    -0.329713096935E+03    0.45091E-01   -0.11191E-01 40928   0.128E+00    0.442E+00
DAV:   9    -0.329710679056E+03    0.24179E-02   -0.30023E-02 41696   0.783E-01    0.323E+00
DAV:  10    -0.329708961023E+03    0.17180E-02   -0.55757E-03 44760   0.330E-01    0.303E+00
DAV:  11    -0.329707741656E+03    0.12194E-02   -0.11102E-03 45384   0.129E-01    0.283E+00
DAV:  12    -0.329704777406E+03    0.29643E-02   -0.22889E-03 37456   0.175E-01    0.216E+00
DAV:  13    -0.329703090168E+03    0.16872E-02   -0.21084E-03 38784   0.154E-01    0.161E+00
DAV:  14    -0.329702975188E+03    0.11498E-03   -0.33891E-04 43144   0.793E-02    0.141E+00
DAV:  15    -0.329702486051E+03    0.48914E-03   -0.28667E-04 31184   0.566E-02    0.113E+00
DAV:  16    -0.329701703546E+03    0.78250E-03   -0.11167E-03 34208   0.992E-02    0.694E-01
DAV:  17    -0.329701548636E+03    0.15491E-03   -0.37560E-04 39912   0.586E-02    0.513E-01
DAV:  18    -0.329701448500E+03    0.10014E-03   -0.91560E-05 32968   0.349E-02    0.397E-01
DAV:  19    -0.329701326627E+03    0.12187E-03   -0.31095E-04 37904   0.564E-02    0.158E-01
DAV:  20    -0.329701316400E+03    0.10227E-04   -0.83130E-05 29928   0.348E-02    0.802E-02
DAV:  21    -0.329701311411E+03    0.49894E-05   -0.21651E-05 20360   0.254E-02
   1 F= -.32970131E+03 E0= -.32970131E+03  d E =-.329701E+03  mag=    -0.0000
       N       E                     dE             d eps       ncg     rms          rms(c)
DAV:   1    -0.329701262739E+03    0.53661E-04   -0.49796E-03 25912   0.331E-01    0.402E-02
DAV:   2    -0.329701390353E+03   -0.12761E-03   -0.13379E-03 38864   0.124E-01    0.313E-02
DAV:   3    -0.329701390956E+03   -0.60317E-06   -0.31419E-05 24336   0.263E-02    0.202E-02
DAV:   4    -0.329701389971E+03    0.98478E-06   -0.72026E-06 16536   0.161E-02
   2 F= -.32970139E+03 E0= -.32970139E+03  d E =-.785603E-04  mag=    -0.0000
       N       E                     dE             d eps       ncg     rms          rms(c)
DAV:   1    -0.329701276526E+03    0.11443E-03   -0.13274E-02 25088   0.452E-01    0.545E-02
DAV:   2    -0.329701452082E+03   -0.17556E-03   -0.18228E-03 39320   0.173E-01    0.347E-02
DAV:   3    -0.329701452627E+03   -0.54508E-06   -0.41120E-05 27144   0.306E-02    0.241E-02
DAV:   4    -0.329701450847E+03    0.17797E-05   -0.93816E-06 16304   0.187E-02
   3 F= -.32970145E+03 E0= -.32970145E+03  d E =-.608762E-04  mag=     0.0000
       N       E                     dE             d eps       ncg     rms          rms(c)
DAV:   1    -0.329701342278E+03    0.11035E-03   -0.15695E-02 24928   0.429E-01    0.553E-02
DAV:   2    -0.329701483961E+03   -0.14168E-03   -0.14624E-03 39344   0.166E-01    0.322E-02
DAV:   3    -0.329701485816E+03   -0.18550E-05   -0.45829E-05 28976   0.294E-02    0.212E-02
DAV:   4    -0.329701484688E+03    0.11280E-05   -0.73675E-06 15784   0.170E-02
   4 F= -.32970148E+03 E0= -.32970148E+03  d E =-.338406E-04  mag=     0.0000
       N       E                     dE             d eps       ncg     rms          rms(c)
DAV:   1    -0.329701362949E+03    0.12287E-03   -0.19055E-02 24768   0.434E-01    0.558E-02
DAV:   2    -0.329701504136E+03   -0.14119E-03   -0.14565E-03 39656   0.167E-01    0.310E-02
DAV:   3    -0.329701506939E+03   -0.28029E-05   -0.51808E-05 30624   0.288E-02    0.197E-02
DAV:   4    -0.329701506058E+03    0.88093E-06   -0.68659E-06 15136   0.163E-02
   5 F= -.32970151E+03 E0= -.32970151E+03  d E =-.213704E-04  mag=     0.0000
       N       E                     dE             d eps       ncg     rms          rms(c)
DAV:   1    -0.329701332056E+03    0.17488E-03   -0.29456E-02 24624   0.509E-01    0.646E-02
DAV:   2    -0.329701518133E+03   -0.18608E-03   -0.19204E-03 39424   0.191E-01    0.350E-02
DAV:   3    -0.329701522935E+03   -0.48024E-05   -0.77595E-05 33856   0.328E-02    0.227E-02
DAV:   4    -0.329701521716E+03    0.12191E-05   -0.74543E-06 15720   0.166E-02
   6 F= -.32970152E+03 E0= -.32970152E+03  d E =-.156578E-04  mag=    -0.0000
       N       E                     dE             d eps       ncg     rms          rms(c)
DAV:   1    -0.329701424504E+03    0.98431E-04   -0.17744E-02 24608   0.373E-01    0.450E-02
DAV:   2    -0.329701527368E+03   -0.10286E-03   -0.10629E-03 39128   0.137E-01    0.253E-02
DAV:   3    -0.329701529442E+03   -0.20739E-05   -0.34245E-05 24536   0.243E-02    0.155E-02
DAV:   4    -0.329701529086E+03    0.35603E-06   -0.68782E-06 14344   0.162E-02
   7 F= -.32970153E+03 E0= -.32970153E+03  d E =-.736964E-05  mag=     0.0000
       N       E                     dE             d eps       ncg     rms          rms(c)
DAV:   1    -0.329701455898E+03    0.73544E-04   -0.14735E-02 24600   0.325E-01    0.385E-02
DAV:   2    -0.329701534798E+03   -0.78900E-04   -0.81012E-04 38432   0.116E-01    0.210E-02
DAV:   3    -0.329701536527E+03   -0.17291E-05   -0.26592E-05 20584   0.223E-02    0.132E-02
DAV:   4    -0.329701536422E+03    0.10500E-06   -0.57850E-06 13248   0.147E-02
   8 F= -.32970154E+03 E0= -.32970154E+03  d E =-.733683E-05  mag=     0.0000
       N       E                     dE             d eps       ncg     rms          rms(c)
DAV:   1    -0.329701455132E+03    0.81396E-04   -0.17429E-02 24568   0.348E-01    0.408E-02
DAV:   2    -0.329701543887E+03   -0.88755E-04   -0.90906E-04 38840   0.122E-01    0.212E-02
DAV:   3    -0.329701546205E+03   -0.23183E-05   -0.33533E-05 21896   0.234E-02    0.132E-02
DAV:   4    -0.329701546059E+03    0.14671E-06   -0.60866E-06 13264   0.148E-02
   9 F= -.32970155E+03 E0= -.32970155E+03  d E =-.963613E-05  mag=    -0.0000
       N       E                     dE             d eps       ncg     rms          rms(c)
DAV:   1    -0.329701399371E+03    0.14683E-03   -0.35212E-02 24504   0.489E-01    0.581E-02
DAV:   2    -0.329701559240E+03   -0.15987E-03   -0.16392E-03 38504   0.166E-01    0.296E-02
DAV:   3    -0.329701564739E+03   -0.54990E-05   -0.76373E-05 33224   0.305E-02    0.203E-02
DAV:   4    -0.329701564025E+03    0.71428E-06   -0.68116E-06 14336   0.154E-02
  10 F= -.32970156E+03 E0= -.32970156E+03  d E =-.179661E-04  mag=     0.0000
       N       E                     dE             d eps       ncg     rms          rms(c)
DAV:   1    -0.329701339181E+03    0.22556E-03   -0.62016E-02 24440   0.648E-01    0.763E-02
DAV:   2    -0.329701586370E+03   -0.24719E-03   -0.25482E-03 38032   0.205E-01    0.395E-02
DAV:   3    -0.329701594858E+03   -0.84878E-05   -0.12454E-04 38016   0.383E-02    0.281E-02
DAV:   4    -0.329701593059E+03    0.17988E-05   -0.93021E-06 15936   0.171E-02
  11 F= -.32970159E+03 E0= -.32970159E+03  d E =-.290347E-04  mag=    -0.0000
       N       E                     dE             d eps       ncg     rms          rms(c)
DAV:   1    -0.329701276679E+03    0.31818E-03   -0.90257E-02 24368   0.781E-01    0.911E-02
DAV:   2    -0.329701626551E+03   -0.34987E-03   -0.36177E-03 37800   0.242E-01    0.481E-02
DAV:   3    -0.329701638151E+03   -0.11600E-04   -0.17512E-04 39968   0.455E-02    0.345E-02
DAV:   4    -0.329701635167E+03    0.29839E-05   -0.13126E-05 18000   0.193E-02
  12 F= -.32970164E+03 E0= -.32970164E+03  d E =-.421074E-04  mag=    -0.0000
       N       E                     dE             d eps       ncg     rms          rms(c)
DAV:   1    -0.329701280887E+03    0.35726E-03   -0.10353E-01 24320   0.836E-01    0.977E-02
DAV:   2    -0.329701683795E+03   -0.40291E-03   -0.41744E-03 37784   0.259E-01    0.524E-02
DAV:   3    -0.329701697119E+03   -0.13324E-04   -0.20221E-04 40488   0.487E-02    0.376E-02
DAV:   4    -0.329701693596E+03    0.35237E-05   -0.15744E-05 19080   0.204E-02
  13 F= -.32970169E+03 E0= -.32970169E+03  d E =-.584291E-04  mag=     0.0000
       N       E                     dE             d eps       ncg     rms          rms(c)
DAV:   1    -0.329701405610E+03    0.29151E-03   -0.87924E-02 24296   0.774E-01    0.900E-02
DAV:   2    -0.329701750503E+03   -0.34489E-03   -0.35807E-03 37672   0.240E-01    0.493E-02
DAV:   3    -0.329701762014E+03   -0.11511E-04   -0.17453E-04 39768   0.455E-02    0.350E-02
DAV:   4    -0.329701758997E+03    0.30167E-05   -0.13748E-05 18464   0.199E-02
  14 F= -.32970176E+03 E0= -.32970176E+03  d E =-.654015E-04  mag=    -0.0000
       N       E                     dE             d eps       ncg     rms          rms(c)
DAV:   1    -0.329701601890E+03    0.16012E-03   -0.53225E-02 24304   0.605E-01    0.697E-02
DAV:   2    -0.329701813714E+03   -0.21182E-03   -0.22022E-03 38192   0.189E-01    0.393E-02
DAV:   3    -0.329701820654E+03   -0.69406E-05   -0.10584E-04 36888   0.360E-02    0.270E-02
DAV:   4    -0.329701818946E+03    0.17087E-05   -0.89468E-06 15680   0.174E-02
  15 F= -.32970182E+03 E0= -.32970182E+03  d E =-.599483E-04  mag=     0.0000
       N       E                     dE             d eps       ncg     rms          rms(c)
DAV:   1    -0.329701433310E+03    0.38734E-03   -0.12207E-01 24208   0.921E-01    0.112E-01
DAV:   2    -0.329701911801E+03   -0.47849E-03   -0.49524E-03 37776   0.287E-01    0.588E-02
DAV:   3    -0.329701927515E+03   -0.15714E-04   -0.24206E-04 41264   0.535E-02    0.423E-02
DAV:   4    -0.329701923596E+03    0.39189E-05   -0.18803E-05 20440   0.218E-02
  16 F= -.32970192E+03 E0= -.32970192E+03  d E =-.104651E-03  mag=    -0.0000
       N       E                     dE             d eps       ncg     rms          rms(c)
DAV:   1    -0.329701686269E+03    0.24125E-03   -0.80997E-02 24224   0.754E-01    0.888E-02
DAV:   2    -0.329702011218E+03   -0.32495E-03   -0.33826E-03 38216   0.235E-01    0.504E-02
DAV:   3    -0.329702022032E+03   -0.10814E-04   -0.16657E-04 39512   0.444E-02    0.353E-02
DAV:   4    -0.329702018929E+03    0.31033E-05   -0.13376E-05 18112   0.198E-02
  17 F= -.32970202E+03 E0= -.32970202E+03  d E =-.953330E-04  mag=     0.0000
       N       E                     dE             d eps       ncg     rms          rms(c)
DAV:   1    -0.329701743294E+03    0.27874E-03   -0.93580E-02 24192   0.815E-01    0.979E-02
DAV:   2    -0.329702121882E+03   -0.37859E-03   -0.39310E-03 38032   0.257E-01    0.540E-02
DAV:   3    -0.329702134722E+03   -0.12840E-04   -0.19573E-04 40756   0.482E-02    0.384E-02
DAV:   4    -0.329702131242E+03    0.34795E-05   -0.14988E-05 19136   0.204E-02
  18 F= -.32970213E+03 E0= -.32970213E+03  d E =-.112313E-03  mag=    -0.0000
       N       E                     dE             d eps       ncg     rms          rms(c)
DAV:   1    -0.329701663942E+03    0.47078E-03   -0.14842E-01 24128   0.103E+00    0.126E-01
DAV:   2    -0.329702268674E+03   -0.60473E-03   -0.62810E-03 37736   0.326E-01    0.687E-02
DAV:   3    -0.329702289501E+03   -0.20827E-04   -0.31644E-04 42464   0.613E-02    0.487E-02
DAV:   4    -0.329702284058E+03    0.54427E-05   -0.25992E-05 23096   0.247E-02
  19 F= -.32970228E+03 E0= -.32970228E+03  d E =-.152815E-03  mag=     0.0000
       N       E                     dE             d eps       ncg     rms          rms(c)
DAV:   1    -0.329701599535E+03    0.68997E-03   -0.21026E-01 24128   0.123E+00    0.151E-01
DAV:   2    -0.329702455568E+03   -0.85603E-03   -0.88989E-03 37704   0.387E-01    0.837E-02
DAV:   3    -0.329702485470E+03   -0.29901E-04   -0.45625E-04 42984   0.734E-02    0.593E-02
DAV:   4    -0.329702477912E+03    0.75578E-05   -0.41921E-05 27168   0.295E-02
  20 F= -.32970248E+03 E0= -.32970248E+03  d E =-.193854E-03  mag=     0.0000
       N       E                     dE             d eps       ncg     rms          rms(c)
DAV:   1    -0.329702358930E+03    0.12654E-03   -0.51346E-02 24184   0.610E-01    0.698E-02
DAV:   2    -0.329702572494E+03   -0.21356E-03   -0.22420E-03 38784   0.193E-01    0.465E-02
DAV:   3    -0.329702580773E+03   -0.82786E-05   -0.12417E-04 37696   0.384E-02    0.318E-02
DAV:   4    -0.329702578398E+03    0.23746E-05   -0.10445E-05 16384   0.188E-02
  21 F= -.32970258E+03 E0= -.32970258E+03  d E =-.100486E-03  mag=    -0.0000
       N       E                     dE             d eps       ncg     rms          rms(c)
DAV:   1    -0.329702240542E+03    0.34023E-03   -0.54242E-02 24160   0.624E-01    0.870E-02
DAV:   2    -0.329702472953E+03   -0.23241E-03   -0.23836E-03 37216   0.202E-01    0.375E-02
DAV:   3    -0.329702478666E+03   -0.57135E-05   -0.97106E-05 33736   0.365E-02    0.271E-02
DAV:   4    -0.329702477255E+03    0.14109E-05   -0.76963E-06 13784   0.166E-02
  22 F= -.32970248E+03 E0= -.32970248E+03  d E =0.101143E-03  mag=    -0.0000
       N       E                     dE             d eps       ncg     rms          rms(c)
DAV:   1    -0.329702478141E+03    0.52530E-06   -0.28817E-05 16736   0.190E-02    0.703E-03
DAV:   2    -0.329702478553E+03   -0.41256E-06   -0.42814E-06 12776   0.147E-02    0.198E-03
DAV:   3    -0.329702478755E+03   -0.20116E-06   -0.19676E-06 12764   0.906E-03    0.108E-03
DAV:   4    -0.329702478871E+03   -0.11667E-06   -0.11435E-06 12740   0.844E-03
  23 F= -.32970248E+03 E0= -.32970248E+03  d E =-.161600E-05  mag=     0.0000
