       N       E                     dE             d eps       ncg     rms          rms(c)
DAV:   1     0.440397355890E+04    0.44040E+04   -0.84692E+04 28608   0.176E+03
DAV:   2     0.839256241597E+03   -0.35647E+04   -0.32161E+04 26688   0.527E+02
DAV:   3    -0.194035068545E+03   -0.10333E+04   -0.94527E+03 28464   0.258E+02
DAV:   4    -0.339277914550E+03   -0.14524E+03   -0.14296E+03 38288   0.104E+02
DAV:   5    -0.345038107907E+03   -0.57602E+01   -0.57258E+01 41168   0.253E+01    0.112E+02
DAV:   6    -0.281832684616E+03    0.63205E+02   -0.41907E+02 40064   0.889E+01    0.107E+02
DAV:   7    -0.306772845427E+03   -0.24940E+02   -0.89951E+01 34216   0.319E+01    0.657E+01
DAV:   8    -0.310163260477E+03   -0.33904E+01   -0.11469E+01 36600   0.114E+01    0.310E+01
DAV:   9    -0.311570303549E+03   -0.14070E+01   -0.56057E+00 34544   0.703E+00    0.800E+00
DAV:  10    -0.311425282278E+03    0.14502E+00   -0.14577E+00 34144   0.575E+00    0.411E+00
DAV:  11    -0.311348981743E+03    0.76301E-01   -0.32015E-01 34008   0.232E+00    0.279E+00
DAV:  12    -0.311354278445E+03   -0.52967E-02   -0.10953E-01 37248   0.113E+00    0.202E+00
DAV:  13    -0.311363334220E+03   -0.90558E-02   -0.29708E-02 33104   0.808E-01    0.128E+00
DAV:  14    -0.311364512735E+03   -0.11785E-02   -0.16545E-02 32496   0.584E-01    0.876E-01
DAV:  15    -0.311366230039E+03   -0.17173E-02   -0.97642E-03 34160   0.385E-01    0.480E-01
DAV:  16    -0.311365539705E+03    0.69033E-03   -0.28225E-03 33280   0.237E-01    0.245E-01
DAV:  17    -0.311365753408E+03   -0.21370E-03   -0.83803E-04 38728   0.995E-02    0.108E-01
DAV:  18    -0.311365825984E+03   -0.72576E-04   -0.16761E-04 37472   0.471E-02    0.657E-02
DAV:  19    -0.311365841242E+03   -0.15258E-04   -0.35897E-05 29112   0.300E-02    0.308E-02
DAV:  20    -0.311365835235E+03    0.60068E-05   -0.16277E-05 22240   0.193E-02
   1 F= -.31136584E+03 E0= -.31136584E+03  d E =0.000000E+00  mag=     1.3052
