  58   58
1 1
    10.981700688000000     0.741976020000000     0.087418104000000
     0.741976020000000    10.152762156000000    -0.277829169000000
     0.087418104000000    -0.277829169000000     8.212976429999999
1 2
    -1.680995580000000    -0.677169447000000     0.119290098000000
    -0.717362940000000    -0.755218746000000     0.074493459000000
     0.134116284000000     0.141150180000000     0.706270386000000
1 3
    -0.090137766000000     0.053373714000000     0.382718115000000
     0.108507291000000    -0.179867166000000     0.236992569000000
     0.349104315000000     0.235270209000000    -1.007036112000000
1 4
    -0.089501604000000    -0.070427856000000    -0.359264850000000
    -0.027828615000000    -0.013999731000000    -0.168317631000000
    -0.394371825000000    -0.192029250000000    -0.480060624000000
1 5
     0.299094759000000     0.876970152000000    -1.099407390000000
     0.806721477000000    -0.917799807000000    -0.832805508000000
    -1.117108806000000    -0.697382175000000    -0.448185852000000
1 6
    -1.114976691000000    -0.808936932000000     1.128179136000000
    -0.854691981000000     0.061339629000000     0.801369660000000
     1.156181376000000     0.768057273000000    -0.293087334000000
1 7
    -0.109662939000000    -0.048683061000000    -0.378528891000000
    -0.075031002000000    -0.022371234000000    -0.183206322000000
    -0.280318257000000    -0.129222837000000    -0.626104251000000
1 8
     0.047555817077015     0.182685632452384    -0.228515868875239
     0.114636594857841    -0.063428974815974    -0.129587674688474
    -0.269365012353727    -0.112706940108234    -0.130783723630137
1 9
     0.004753615856323     0.011444999499687     0.013524433401914
     0.015003190494150     0.004134840732056     0.011059630221588
     0.011830992857588     0.007214050478032    -0.262265480519470
1 10
    -0.020364348038294    -0.004591043067749    -0.013773129203246
    -0.006075728918109    -0.004951449153744    -0.002696960866890
     0.001471580174506    -0.017800316169356    -0.137783402695980
1 11
    -0.122865241729584    -0.071608936692529    -0.011143915998399
    -0.103081834616144    -0.044103484896408     0.038720316985289
     0.280078046870846     0.207147987315718    -1.009671409772532
1 12
     0.089307905511647     0.059489673198039    -0.057051304457811
     0.063390247674463     0.031695531591202    -0.017317311103256
    -0.187673657711491    -0.090634736929824    -1.010131356250621
1 13
    -3.124914701015195    -3.279683428860650    -2.187891185050594
    -2.137748048351468    -0.045257428631331    -0.652169039089905
    -1.520660529819128    -0.728841464581121     1.398419151663548
1 14
    -0.366133706718269     1.792461986608177     2.053802107544503
     3.563405980714799    -3.500297898787532     0.713460984835069
     1.682171061803533     0.912811085229698     2.134979398895591
1 15
     1.411901944433510     0.247852435118725     0.413464156532764
     0.030390718887401     1.058776404864196     0.264386043091761
    -0.180481693189729    -0.178473912641756    -3.149091249400744
1 16
    -0.705527723595960    -0.393228142512693    -0.098409789628598
    -0.320281772798768    -0.226062062965251    -0.002758047852659
     0.032321026181086     0.035640143496379    -0.297213499703510
1 17
     2.175422068649897     0.253768945222522    -0.085037905938459
     0.532898556359292     1.515296934098567     0.063143148768681
    -0.045294941996566    -0.022263366758601    -4.683574638800763
1 18
    -0.774704000103840    -0.303416253094203    -0.149321950315026
    -0.479306636582433    -0.250535456240915    -0.087985967141109
     0.190495315183460     0.102544414883766    -0.213438815563918
1 19
    -0.920653009579540     2.771876420795447     1.320353838611025
     1.862938998280158    -3.983001941447487     1.247230503674148
     1.486244463740502     1.522214887952531     3.287789577783012
1 20
    -2.980247670020979    -2.270432005677154    -1.292458574019643
    -2.489391809994029    -0.091744643235995    -1.295659442683655
    -1.609892593092367    -1.530546117066299     2.182827696251907
1 21
     0.079459016121770     0.035998966989925    -0.024762898594320
     0.047449513973717     0.003278341918300     0.029426788502468
    -0.136635908802322    -0.192620528874776    -1.394378309821465
1 22
    -0.137492192139192    -0.067101624308837     0.020390145020707
    -0.056035997072666    -0.021579971104986     0.045932669205548
     0.191908590443265     0.110249333899710    -1.212358568657131
1 23
    -0.210082756428804    -0.198024217878886     0.039078169379446
    -0.070778562915183    -0.126582362272834     0.015711598295150
     0.055821242022585     0.636940595540550     0.760371492540848
1 24
     0.137828166921502     0.159376458042272     0.014443469412110
     0.067394214494610     0.066514538473884    -0.021460134949346
    -0.005333212659416     0.086216264228532     0.275462578835224
1 25
    -0.509301773480767    -0.562964839285301    -0.257406120664891
    -0.183824002929099    -0.061746091019628    -0.738361206511016
     0.018966776710537    -1.047131261172788    -0.518989523869789
1 26
     0.199983924855391     0.560379553488055     0.375385477738248
     0.199868426128125     0.306863618526824     0.331557246416234
     0.090399203849057     0.144592149528884    -0.280348882133628
1 27
     0.075666751907094     0.072181990307306     0.077563759574512
     0.057601336692607     0.057210998136786     0.036635253441932
     0.012132552020043     0.030038154709865     0.232176484396293
1 28
    -0.062082687310516     0.026042841593224    -0.114974504470942
     0.034066467462867    -0.079997247044494    -0.053635723248692
    -0.559543719841353    -0.362317621739041     0.774692391875044
1 29
     0.635446654860121     0.148618105165003    -0.501816984530572
     0.359713479006732     0.347843981230829    -0.339241447454728
    -0.502123881148735    -0.361261161952093    -0.125881827135214
1 30
    -0.847877571127743    -0.047791959072423     0.646914499919165
    -0.301121210376523    -0.727146987228580     0.464179484990000
     0.695995330503198     0.601295802612844    -0.875996089848114
1 31
    -0.258207068981726    -0.076645426836905     0.055429017773258
    -0.155360402297061    -0.105227826159845    -0.014508054414704
     0.463684961867952    -0.088316455371261     0.634635335229001
1 32
     0.214288795794782     0.002921882088134    -0.009369068186444
     0.083381595465067     0.011447573853850    -0.040334984101447
     0.063766140188336    -0.104771488331301     0.300813842334983
1 33
    -0.663559987923349    -0.185126545718630    -0.800896460263063
    -0.830605090032688    -0.018488281983293    -0.091415592648995
    -0.844678492094171     0.310602948749973    -0.393384893680012
1 34
     0.657171258323737    -0.091473577724316     0.363418395323390
     0.475364947446464    -0.122386222797764     0.232097285269025
     0.143570575071803     0.051037709020278    -0.271762376752332
1 35
    -2.023357617965466     0.303341614480284     0.395261630142236
    -0.059109420074333    -0.383286533529976    -0.034872130013467
     0.085641599132463    -0.642555247955793    -1.422116971887684
1 36
     1.700648988327916     0.142258132391363    -0.235863486624641
     0.054647397814864    -0.258348495994704    -0.055275805175865
    -0.217192763794606    -0.583511355730807    -1.043141133713291
1 37
     0.001256343298625     0.012454534186257     0.040186014314443
     0.006098332799630    -0.005277113277602    -0.013736334347218
    -0.004319180976361     0.197306711499709     0.561316743160726
1 38
    -0.005379883573699    -0.000082027667527     0.017403065370372
    -0.002890296721902    -0.018713622357305    -0.014907821438056
    -0.012074095521345     0.302960232968619     0.481020613695471
1 39
    -1.670540120111563    -0.820358702942401     0.538290539754331
    -1.139899367489234    -0.748132398837695     0.405176135175400
     0.951907981911037     0.390513453893174    -2.056262969651780
1 40
     1.176905159705169     0.753659366504892    -0.445141994772974
     0.704982545754601     0.229270159279587    -0.203513000252579
     0.370375661515175     0.248234107449864    -0.644864751077731
1 41
    -0.079976032992547    -0.038776458418425     0.031347768850045
    -0.036078973857550    -0.021031611100022    -0.007883613126794
    -0.272073044757507    -0.121568303239372     0.638695233348235
1 42
     0.068096163902359     0.034321507509605     0.023782366502452
     0.045820466511504     0.023932750559586    -0.006887024108673
    -0.152593618499826    -0.080532784000305     0.479696856853993
1 43
     0.268357757126564     1.036464364430579     0.015188318347130
     0.924165187621813     0.956937126492550     0.260739555360793
    -0.353323335136990     0.258519151257032    -1.038077103801910
1 44
    -1.125333799422586    -0.751289521190750    -0.300905298470043
    -0.966456578736128    -1.392141987910283    -0.260078619786807
    -0.810574310761177     0.422917682530167    -1.500502422407600
1 45
    -0.002528243568678     0.001060702597338    -0.003047280706308
    -0.002731898467367     0.005793793298350     0.003650231204973
     0.228484296510803    -0.110528510606276     0.602116550711495
1 46
    -0.013764619749814     0.003677102337439     0.010479741661701
    -0.014211057687449     0.005942291661977     0.004153239947800
     0.291937411577081    -0.171478838966212     0.477881876854103
1 47
    -0.294213443639280    -0.048094612880197    -0.004860846436069
    -0.066117599990791    -0.138896883716242     0.002342502758299
     0.215117558090836     0.512769092415621     0.666095774266052
1 48
     0.122940145265263     0.086055980280490     0.044703664532351
     0.080972150587292     0.062293884983231     0.020309861910455
    -0.126415478397520     0.073856486140970     0.212355017103990
1 49
    -0.918180939279319    -0.653226858931769    -0.348322004534696
    -0.505172576125173    -0.356974037765340    -0.514535515807722
     0.075078886956481    -0.637721744075567    -0.201632020979966
1 50
     0.506164450909529     0.607420535121563     0.354656520446000
     0.281519897801090     0.193175628450609     0.166625535304169
    -0.024913782606280     0.093499755396921    -0.142829497523796
1 51
    -0.100024726352369     0.045036960859603    -0.061074312707980
     0.033050550086305    -0.070409909834686    -0.076172117766804
    -0.590994730410872    -0.364447512554496     0.708531892356982
1 52
     0.030335151437119    -0.021835387957116     0.097071730321379
     0.020004850985798    -0.002911039350473     0.057994503788687
     0.034464348792713    -0.010092231646141     0.218466078334788
1 53
    -0.340765559231259     0.253587591314474     1.111458866602649
     0.249340538114732    -0.180812078976035     0.526968835942032
     1.114796544108940     0.717398423223977     0.374201733639619
1 54
     0.579446743377807     0.318939599741675    -0.553272846085889
     0.159913880691590     0.379823928828888    -0.282988381619182
    -0.294674495701590    -0.210177041104122    -0.154143187138693
1 55
    -0.207527641727660    -0.181083618840954     0.042652501420787
    -0.149184756063670    -0.153285668016668    -0.034572304745953
     0.379502418086050    -0.284212196704822     0.674044915242193
1 56
     0.146924752396274     0.059216904604197     0.061250153627450
     0.087771018524541     0.028118047296994     0.048907818204823
     0.072418173418980    -0.031113000008501     0.180724394227989
1 57
    -0.783291154264132     0.034632175514780    -0.821898843113736
    -0.348091949926918    -0.432495591272443     0.220826023758021
    -0.637785386231408     0.141344513887522     0.028796896959291
1 58
     0.728001206386969    -0.020189648949424     0.544592527452650
     0.288151881863025    -0.021647761453231     0.131063712890744
     0.186133977474413     0.122765247192546    -0.175332253646498
2 1
    -1.680995580000000    -0.717362940000000     0.134116284000000
    -0.677169447000000    -0.755218746000000     0.141150180000000
     0.119290098000000     0.074493459000000     0.706270386000000
2 2
    10.826827188000001     0.690753867000000     0.094847865000000
     0.690753867000000     9.719385822000001     0.164425653000000
     0.094847865000000     0.164425653000000     7.502458482000001
2 3
    -0.117706638000000    -0.064663506000000    -0.328272093000000
    -0.070307013000000    -0.032366478000000    -0.184556430000000
    -0.367046028000000    -0.195997623000000    -0.491981022000000
2 4
    -0.091083675000000     0.036408468000000     0.333393336000000
     0.089893302000000    -0.149175822000000     0.205334481000000
     0.303231201000000     0.182717394000000    -0.947671641000000
2 5
    -1.166084946000000    -0.792727302000000     1.084943733000000
    -0.842685465000000     0.079874445000000     0.808434114000000
     1.029272613000000     0.749746086000000    -0.206941554000000
2 6
     0.186473250000000     0.854637810000000    -1.146622278000000
     0.814223466000000    -0.959861505000000    -0.801190479000000
    -1.081079535000000    -0.742760805000000    -0.363134604000000
2 7
    -0.016519377000000     0.122719539000000     0.328037352000000
     0.047816325000000    -0.109982409000000     0.174800094000000
     0.328512390000000     0.236436969000000    -0.956827929000000
2 8
    -0.157522422772079    -0.148089456555941     0.249845044288336
    -0.161410439942211    -0.016430148962771     0.128478060799471
     0.249713987529793     0.112765291569776    -0.106245529872125
2 9
    -0.034139661520849    -0.006774698297009    -0.016252910298835
    -0.004491814379137    -0.005676005804550    -0.007303917969605
     0.004551101960383     0.003199033068073    -0.140523113029347
2 10
     0.008506519749195     0.010157210827043     0.003579409707751
     0.010685182340034     0.003320104549776    -0.003790348681027
     0.017857419471293    -0.009196439970957    -0.257790516295003
2 11
     0.087843253251631     0.055610301928051    -0.044514500898105
     0.053178457251342     0.016415359321754    -0.039548057544263
    -0.277670667432333    -0.200632894384053    -1.231041855559679
2 12
    -0.116461057877742    -0.063595755675312     0.005184999481728
    -0.076997813159226    -0.023255839921430     0.028826574658720
     0.243375296528808     0.218009737566920    -0.837758258507075
2 13
    -0.461725100906657     1.672901183050968     2.124876886536413
     3.662442895949161    -3.593300870774756     0.687564530204322
     1.582749226821550     0.572923686048382     2.177322202149807
2 14
    -3.073474091183728    -3.123530784041227    -2.014159451079214
    -2.369216113450154    -0.080710005301539    -0.647302087704728
    -1.834649027845877    -0.814521990776201     1.548363334536699
2 15
    -0.676850386890237    -0.370769053848521    -0.307106426522140
    -0.284256709554768    -0.202403362121523    -0.140024344292505
     0.033507590233605    -0.023415679477646    -0.290661708914550
2 16
     1.632527015963611     0.518712795745157    -0.099805939221664
     0.287239022090892     1.142149859097368    -0.088930325335485
    -0.059072948640762     0.002484852692801    -3.149839070181611
2 17
    -0.646214200112934    -0.320059954639122    -0.088251822729508
    -0.407316042174042    -0.237377235631024    -0.065207199364506
     0.165597857779061     0.085603052940793    -0.140793368279808
2 18
     2.296405118054249     0.232887048914069    -0.054970943703189
     0.607875540843507     1.431162610957490    -0.080180740648560
    -0.046705770732550     0.027577216494830    -4.770608908176037
2 19
    -2.772039522383422    -2.060051344887769    -1.406016423631429
    -2.406806136430776    -0.198115421373657    -1.185038237163361
    -1.627028045925031    -1.356857605015733     1.983399307095050
2 20
    -0.791068797933322     2.878122426218308     1.431287383672291
     1.921753430903980    -3.742047887992169     1.350838340911512
     1.759862056711653     1.195242688015024     3.050948130868487
2 21
    -0.045246011520173    -0.046162642444593    -0.004649210765230
    -0.013100319546160    -0.019967711907852    -0.021318193056286
     0.168271908313913    -0.002970079917027    -1.041292730141204
2 22
     0.099245685266970     0.041682241822917    -0.100433880335369
     0.064855715442420     0.005144224084735    -0.026080759425159
    -0.407975788097402    -0.034056427077141    -1.506120023251148
2 23
     0.107497258294772     0.177017120794447     0.001993649459619
     0.037623356839274     0.082719717044328     0.004821718295811
    -0.061851218432608     0.145572710152201     0.328112555803456
2 24
    -0.258996231714146    -0.144934402900291     0.039629263306685
    -0.080034018067868    -0.061245910817061     0.057435395664045
    -0.037876039769129     0.478238272926809     0.659494904146973
2 25
     0.207299472813388     0.562663128324280     0.332710819418761
     0.179110712009905     0.332502921709683     0.263907520451510
     0.078874316561445     0.139455048994131    -0.267899062181137
2 26
    -0.498476007060645    -0.412742480369746    -0.369512956736007
    -0.091259080087966    -0.018873434881971    -0.957215266284741
    -0.115354000289100    -1.167345636474581     0.023645653723240
2 27
    -0.205004583816125    -0.034529405218683    -0.083878004280622
    -0.023537226346623    -0.146153503752165    -0.017584091946984
    -0.418313290410966    -0.324504281278999     0.601665869963471
2 28
     0.043525577514241     0.040593795535198     0.096885046664248
     0.031775821275993     0.028367901686589     0.056366678869305
     0.013771691100463     0.007788385604722     0.283555503941226
2 29
    -0.857051941459654    -0.100093554165352     0.973328045873373
    -0.217169192625776    -0.560537951742591     0.664310022515511
     0.866791548420101     0.661950077092278    -0.318561518193646
2 30
     0.582323368821788     0.121573017473138    -0.482857279170684
     0.264520842264459     0.321337730458412    -0.300324976293455
    -0.475128292911413    -0.311377497357719    -0.204774057784970
2 31
     0.209995071680757     0.050101462194361    -0.065421779086937
     0.096564478768163     0.026213968278928    -0.046276332916671
    -0.018355812014470    -0.143934985341911     0.279642689915489
2 32
    -0.223153912391646    -0.038736858854791     0.058752552578251
    -0.129998767483016    -0.127725563961076    -0.020219348622149
     0.601602227807630    -0.297349351940388     0.780101032274715
2 33
     0.581375807834832    -0.027871492871035     0.287923241525376
     0.471401691119431    -0.078992172405594     0.174666603838746
     0.110107529530977     0.049539525529460    -0.251361530130193
2 34
    -0.873102964585952    -0.009838605869533    -0.856320292379179
    -0.712656846902187    -0.003363605792004    -0.108752187323267
    -0.865954300503269     0.337681036078199    -0.371548091452767
2 35
     1.684727606630182     0.143809115300360    -0.183572734269374
     0.053882277674651    -0.226288877846001    -0.065297323315516
    -0.159121417995534    -0.546357536574621    -0.943130078638843
2 36
    -1.834917908756128     0.096474436903234     0.272813650882138
    -0.053780921648683    -0.522653897776060    -0.111634469847768
    -0.007596987713824    -0.712561619380114    -1.564734328892012
2 37
    -0.009901776601996    -0.002595657111531    -0.010713096233116
    -0.006818667719067    -0.000279554062321    -0.014789965593907
    -0.009495881074748     0.213808886797409     0.629435535385161
2 38
     0.003054352056957     0.023002632237564     0.001398713158357
     0.007742657537192     0.007762928742386    -0.020208977307864
    -0.011160948440881     0.268129588212292     0.494659363403734
2 39
     1.135046063827191     0.719793725400455    -0.403422440214468
     0.761796133984917     0.245659664390280    -0.226110679809649
     0.430665997147879     0.232964232858583    -0.663892812827225
2 40
    -1.706210841324981    -0.898649397363622     0.522114118009859
    -1.076895047477475    -0.654373360583647     0.334993451408233
     0.774135169443908     0.362282264985797    -1.940964597321118
2 41
     0.057351482303011     0.032233101951290     0.009951276056539
     0.033324447068107     0.014642881500410     0.003960427786773
    -0.218804560319183    -0.108215707520703     0.424001956296335
2 42
    -0.089837267184156    -0.038391305519747     0.038368205774294
    -0.048236039893175    -0.024415959520596     0.019981279816969
    -0.201612692621526    -0.090598144513980     0.679164573112012
2 43
    -1.076543365638535    -0.699300479796504    -0.194948180346606
    -0.989579895358101    -1.292940838196825    -0.182716629417478
    -0.529902032191204     0.586751448598142    -1.381508562227812
2 44
     0.280553008455694     0.993266426163072    -0.027317098980160
     0.930220149470796     1.013229791891730     0.180300113189053
    -0.421465698530255     0.305649231908716    -1.135295446793410
2 45
     0.005364326602272    -0.005752779464586    -0.013813647780980
     0.000313025122059    -0.005500567958108     0.015009177464024
     0.190035477339112    -0.092372110680106     0.584362274925560
2 46
     0.023599925655710    -0.009487395453969    -0.008540777313767
     0.010896008503235    -0.007868999002120     0.005359612368506
     0.262738390477555    -0.185463613432896     0.521157599978748
2 47
     0.144475707954865     0.091300565345106     0.021068853546773
     0.100160024861451     0.081277632935325     0.001128116140191
    -0.141218172422595    -0.013095669978426     0.157855646229377
2 48
    -0.215241071015503    -0.035080970569299    -0.004974930893204
    -0.056246937331650    -0.058529569321122     0.013835333256303
     0.138702657285085     0.561642496713953     0.779786592882526
2 49
     0.523254019734465     0.651430264443566     0.344782557823223
     0.291236405016084     0.227491007456318     0.192608034705189
    -0.001690052805092     0.090588244623071    -0.187040053204229
2 50
    -0.845202243465568    -0.761285582468065    -0.316730509798952
    -0.565392669674764    -0.116392074564362    -0.738727973898006
     0.121093108475765    -0.764201336052304     0.239188907123140
2 51
     0.031332211878617    -0.012300378742110     0.054399429118775
     0.022997446580422     0.000536951225941     0.033738828216133
    -0.020128835333843    -0.025860872169858     0.183736789604429
2 52
    -0.085278131709108     0.053487224885064    -0.103764999422271
    -0.010779095505839    -0.106877807977927    -0.060407720053475
    -0.500592698021555    -0.289321483260356     0.712976943374894
2 53
     0.459865961094158     0.208420517602930    -0.570090875045907
     0.044572137410281     0.311754164635618    -0.254865148665046
    -0.369403586512637    -0.158347812234542    -0.133615056204875
2 54
    -0.886362218476056    -0.031170985083822     0.914418980734093
     0.022021600190871    -0.522735925443587     0.382187174215757
     0.808051252849642     0.502287465060413    -0.309999998251309
2 55
     0.138772427944821     0.081551058493750     0.032647954522693
     0.093695867521584     0.044046028922001     0.028193946460626
     0.017440779240500    -0.029904270470912     0.140499723196665
2 56
    -0.155059634182794    -0.115927722538416    -0.006648483880116
    -0.093087259942400    -0.140247511690186    -0.011518287360340
     0.518011791786731    -0.272966392056155     0.727785765903865
2 57
     0.787834261344376     0.025778844502331     0.495950592032227
     0.311822049601847    -0.028314159421658     0.109685134185548
     0.168124190218364     0.106111744990960    -0.191865542887052
2 58
    -0.509490342831405    -0.093323443054074    -0.976230128179691
    -0.533785146544215    -0.341157783480586     0.193506567660979
    -0.918187067783215     0.233185801845583     0.105318339448151
3 1
    -0.090137766000000     0.108507291000000     0.349104315000000
     0.053373714000000    -0.179867166000000     0.235270209000000
     0.382718115000000     0.236992569000000    -1.007036112000000
3 2
    -0.117706638000000    -0.070307013000000    -0.367046028000000
    -0.064663506000000    -0.032366478000000    -0.195997623000000
    -0.328272093000000    -0.184556430000000    -0.491981022000000
3 3
     9.560303652000000     1.894900191000000    -0.256495518000000
     1.894900191000000    10.005737895000001    -0.530020176000000
    -0.256495518000000    -0.530020176000000     8.440025148000000
3 4
    -1.639367250000000    -0.711083271000000     0.142712805000000
    -0.835262649000000    -0.821950473000000     0.106419624000000
     0.199102038000000     0.108812871000000     0.531968943000000
3 5
     0.047934390000000     0.015333171000000     0.032149794000000
     0.024521406000000     0.015595692000000     0.065227440000000
     0.034918071000000     0.021721182000000    -0.854503077000000
3 6
    -0.041181072000000    -0.020225229000000    -0.040368507000000
    -0.026620185000000    -0.015651252000000     0.002846061000000
    -0.006907497000000    -0.017677803000000    -0.414848463000000
3 7
    -0.084301188000000     0.019832142000000     0.318867174000000
     0.108123927000000    -0.205452546000000     0.263378013000000
     0.398294361000000     0.239446932000000    -0.992147421000000
3 8
    -0.563937232013842    -0.373899315407152     0.362924560038717
    -0.478684498541218    -0.024997828532619     0.296225407057174
     0.388168588053457     0.271350834285567     0.103766996936141
3 9
    -0.115797071250756     0.061919949853313    -0.294177801224878
     0.106693307130483    -0.061553927049094    -0.083790826535058
    -0.344705486321824    -0.024386230326081    -0.037789904286195
3 10
    -0.510387440472857    -0.304711644212784     0.726481936997259
    -0.367213236442111     0.083349914154529     0.298856527504891
     0.648893839620137     0.249218780206438    -0.141062942058587
3 11
    -0.245391232156181     2.944129638871833     1.296688613703778
     1.645625704493892    -3.652838658941247     1.408795674690524
     1.320933664756277     1.138400969097761     2.686703140538969
3 12
    -2.505263225519886    -1.742361256321925    -1.179261994425223
    -2.267319211870649    -0.024781655276937    -1.279004324027577
    -1.503527523510283    -1.371641948457736     1.535410621927656
3 13
     0.092472076318364     0.080938347524705    -0.010450734249505
     0.069324698952937     0.021239088786118     0.058205248192735
    -0.254157942509842    -0.114369280011961    -1.055116405230034
3 14
    -0.117657408025539    -0.099663225332186     0.033959381632296
    -0.073018134412634    -0.053325248680520     0.057563443444053
     0.296791066590654     0.148475453073435    -0.816671669705713
3 15
     0.082794443595861     0.081715526591406    -0.044738765581571
     0.082031943672078     0.038673017524776     0.021266000548134
    -0.352849082377697    -0.378579173388709    -1.217982311410513
3 16
    -0.103055738362068    -0.044949982137998    -0.000307446493333
    -0.091905298300150    -0.044014594530961     0.056637026424354
     0.268678061379326     0.176113832663756    -0.805831122660948
3 17
     0.011245854490883     1.695029990999490     2.185346800278182
     3.814462546529295    -4.428090680380683     1.181992315007927
     1.581454200213028     0.711602442240092     2.629320739857569
3 18
    -3.043024655724656    -3.028355298902175    -2.225065298981879
    -2.269901110008295    -0.288835786637169    -0.871294391518575
    -1.783118712141023    -0.678074464307990     2.066725461867710
3 19
     2.341041129635395     0.467771276772894     0.074276463163862
     0.119296578984689     1.913870731157143     0.091455137917339
    -0.405446082467908    -0.455562307405017    -5.263267040750112
3 20
    -0.837278739838428    -0.478423441483548    -0.133430962598611
    -0.450753257083572    -0.334390875666555    -0.036006306561384
     0.139676937910118     0.118751819680852    -0.172592469379373
3 21
     2.341147145667579     0.070366918100098    -0.264494505647764
     0.479179417343812     1.212004638211225    -0.025730091011012
     0.167665170406646     0.050004500349347    -4.963907939656789
3 22
    -0.693874115135139    -0.224415552434643    -0.258318664019087
    -0.511829908732608    -0.227117330239450    -0.177405597240519
     0.053556037427505     0.057361197474964    -0.249484266506416
3 23
    -0.149645808125979    -0.024811483733559    -0.078896002036768
    -0.014935163993898    -0.087616863080395    -0.047380406464656
    -0.021340393411691     0.695246710181166     0.976990062662761
3 24
     0.098445458040776     0.065835688811587     0.037056234517231
     0.080188173512015     0.063613870437696     0.011965196721351
    -0.153509122697173     0.047192308537395     0.229643055170473
3 25
    -0.583649011356772    -0.633973928231639    -0.285246499593071
    -0.175962546701005    -0.787853118279439    -0.939947499423452
    -0.106049988528626    -0.578524167829811     0.217936669882872
3 26
     0.323365322401147     0.617002215250851     0.279574804949260
     0.161027854130483     0.249199582525130     0.184292126342058
     0.039849889446931     0.028592299213848    -0.215369769597314
3 27
    -0.061360938120950     0.038071209047039    -0.079475852789980
     0.025017024325754    -0.045483870220615    -0.084691681028624
    -0.378215903691323    -0.310115025555198     0.620434177432461
3 28
     0.024199104767362    -0.017199410471683     0.094877725926707
     0.005601452560699    -0.008269237448849     0.053740850661672
     0.068342718328318     0.022624550689535     0.219013872298391
3 29
    -0.635249128465328    -0.160423960785065     1.410000448262446
     0.005482182446420    -0.436011466815087     0.690837487339875
     1.532484255699165     0.819682210396987    -0.125507516974198
3 30
     0.641412046267551     0.411167454868543    -0.720732329343255
     0.254792549465050     0.492220690276609    -0.450059883437610