mesh: [     1,     1,     1 ]
nqpoint: 1      
reciprocal_lattice:
- [   0.09133955,   0.05273493,   0.00000000 ] # a*
- [   0.00000000,   0.21093967,   0.00000000 ] # b*
- [   0.00000000,   0.00000000,   0.07457677 ] # c*
natom:   58     
lattice:
- [    10.948160171500000,     0.000000000000000,     0.000000000000000 ] # a
- [    -2.737040674100000,     4.740692052200000,     0.000000000000000 ] # b
- [     0.000000000000000,     0.000000000000000,    13.409000396700000 ] # c
points:
- symbol: La # 1
  coordinates: [  0.335366440446065,  0.339502433788209,  0.592587427450623 ]
  mass: 138.905470
- symbol: La # 2
  coordinates: [  0.832238505442625,  0.338840226598086,  0.589025088076711 ]
  mass: 138.905470
- symbol: La # 3
  coordinates: [  0.175800608025533,  0.684416689751569,  0.916829945741923 ]
  mass: 138.905470
- symbol: La # 4
  coordinates: [  0.672252454014682,  0.679605581538991,  0.921807917512502 ]
  mass: 138.905470
- symbol: La # 5
  coordinates: [  0.169413535196526,  0.674581119529592,  0.415749507388164 ]
  mass: 138.905470
- symbol: La # 6
  coordinates: [  0.663256334582098,  0.667247780483757,  0.416269694144590 ]
  mass: 138.905470
- symbol: La # 7
  coordinates: [  0.006500108075904,  0.007572473091185,  0.244845519547316 ]
  mass: 138.905470
- symbol: Li # 8
  coordinates: [  0.510490619399176,  0.014202096557361,  0.803142051896900 ]
  mass: 6.941000
- symbol: Li # 9
  coordinates: [  0.402833263249391,  0.490585491949947,  0.104867996139613 ]
  mass: 6.941000
- symbol: Li # 10
  coordinates: [  0.901608265773660,  0.463904185772864,  0.067165508060470 ]
  mass: 6.941000
- symbol: Ti # 11
  coordinates: [  0.007996009653042,  0.024978233056120,  0.998567472205367 ]
  mass: 47.867000
- symbol: Ti # 12
  coordinates: [  0.512565060285910,  0.026618233812340,  0.013194952428768 ]
  mass: 47.867000
- symbol: Ti # 13
  coordinates: [  0.001532139600193,  0.008539447333160,  0.505457776823390 ]
  mass: 47.867000
- symbol: Ti # 14
  coordinates: [  0.499778642003578,  0.002221895218487,  0.502564392817261 ]
  mass: 47.867000
- symbol: Ti # 15
  coordinates: [  0.344047831893682,  0.350406018964348,  0.324990255445812 ]
  mass: 47.867000
- symbol: Ti # 16
  coordinates: [  0.824911674608487,  0.331608039246806,  0.325081214093558 ]
  mass: 47.867000
- symbol: Ti # 17
  coordinates: [  0.340774384873556,  0.343728223376476,  0.837798287237682 ]
  mass: 47.867000
- symbol: Ti # 18
  coordinates: [  0.840126876305695,  0.347251545130314,  0.835418108602005 ]
  mass: 47.867000
- symbol: Ti # 19
  coordinates: [  0.168702064058847,  0.676527570525007,  0.676441985608598 ]
  mass: 47.867000
- symbol: Ti # 20
  coordinates: [  0.668539668957990,  0.673667278394060,  0.677014427736377 ]
  mass: 47.867000
- symbol: Ti # 21
  coordinates: [  0.184820865643668,  0.694007536734594,  0.163236983940925 ]
  mass: 47.867000
- symbol: Ti # 22
  coordinates: [  0.671537160185480,  0.668513633680459,  0.165588050034598 ]
  mass: 47.867000
- symbol: O  # 23
  coordinates: [  0.261489072079538,  0.999953966727906,  0.252808187232875 ]
  mass: 15.999400
- symbol: O  # 24
  coordinates: [  0.778575057947158,  0.987196416617038,  0.258129839303347 ]
  mass: 15.999400
- symbol: O  # 25
  coordinates: [  0.223108525398141,  0.002066498539977,  0.750487373825511 ]
  mass: 15.999400
- symbol: O  # 26
  coordinates: [  0.714421675990443,  0.993307236972217,  0.756237257379732 ]
  mass: 15.999400
- symbol: O  # 27
  coordinates: [  0.999175597736176,  0.554236171119046,  0.256247012123311 ]
  mass: 15.999400
- symbol: O  # 28
  coordinates: [  0.500909124549760,  0.557313484692357,  0.251348246631628 ]
  mass: 15.999400
- symbol: O  # 29
  coordinates: [  0.995798020941793,  0.452037080711599,  0.749020451260916 ]
  mass: 15.999400
- symbol: O  # 30
  coordinates: [  0.496487435955132,  0.432010263606725,  0.746331026139223 ]
  mass: 15.999400
- symbol: O  # 31
  coordinates: [  0.218235675755663,  0.458552690814786,  0.258595525982379 ]
  mass: 15.999400
- symbol: O  # 32
  coordinates: [  0.720880582583318,  0.459955029947026,  0.257926988263468 ]
  mass: 15.999400
- symbol: O  # 33
  coordinates: [  0.279236317797976,  0.564089699777308,  0.751870413212709 ]
  mass: 15.999400
- symbol: O  # 34
  coordinates: [  0.771788373790511,  0.544755235900956,  0.750558463567037 ]
  mass: 15.999400
- symbol: O  # 35
  coordinates: [  0.116050561213600,  0.346832140674845,  0.578291187622726 ]
  mass: 15.999400
- symbol: O  # 36
  coordinates: [  0.613466293465780,  0.352072096983102,  0.576027171291460 ]
  mass: 15.999400
- symbol: O  # 37
  coordinates: [  0.048909531350269,  0.327702053155118,  0.088597573506901 ]
  mass: 15.999400
- symbol: O  # 38
  coordinates: [  0.546731485579205,  0.356207359474544,  0.076906669859089 ]
  mass: 15.999400
- symbol: O  # 39
  coordinates: [  0.327568979672357,  0.888202346552418,  0.579756781001024 ]
  mass: 15.999400
- symbol: O  # 40
  coordinates: [  0.826270440772881,  0.889650652632691,  0.579617928142396 ]
  mass: 15.999400
- symbol: O  # 41
  coordinates: [  0.327492879016850,  0.752459440055599,  0.074232898085828 ]
  mass: 15.999400
- symbol: O  # 42
  coordinates: [  0.832342102435502,  0.758407154996607,  0.087031342695654 ]
  mass: 15.999400
- symbol: O  # 43
  coordinates: [  0.057688414387851,  0.770530209490216,  0.575297898105524 ]
  mass: 15.999400
- symbol: O  # 44
  coordinates: [  0.557487526883173,  0.781376454307277,  0.582260489982624 ]
  mass: 15.999400
- symbol: O  # 45
  coordinates: [  0.103605910078678,  0.870099638856284,  0.085031637383912 ]
  mass: 15.999400
- symbol: O  # 46
  coordinates: [  0.613397164702347,  0.886782665599299,  0.079816864875465 ]
  mass: 15.999400
- symbol: O  # 47
  coordinates: [  0.451956395162511,  0.678646310932436,  0.911530878628592 ]
  mass: 15.999400
- symbol: O  # 48
  coordinates: [  0.943073592496020,  0.656055661236850,  0.924483094338024 ]
  mass: 15.999400
- symbol: O  # 49
  coordinates: [  0.386586487315096,  0.650980388096156,  0.426670984960525 ]
  mass: 15.999400
- symbol: O  # 50
  coordinates: [  0.884116932900407,  0.666545424224000,  0.418938826386096 ]
  mass: 15.999400
- symbol: O  # 51
  coordinates: [  0.171760524827686,  0.227995230539294,  0.922177642674365 ]
  mass: 15.999400
- symbol: O  # 52
  coordinates: [  0.662983209150743,  0.228027272858497,  0.917140742047781 ]
  mass: 15.999400
- symbol: O  # 53
  coordinates: [  0.157753431288848,  0.108203082954692,  0.414022151099871 ]
  mass: 15.999400
- symbol: O  # 54
  coordinates: [  0.671896746426017,  0.118726136130335,  0.425434727160960 ]
  mass: 15.999400
- symbol: O  # 55
  coordinates: [  0.392606343850163,  0.107451685015866,  0.910839578893019 ]
  mass: 15.999400
- symbol: O  # 56
  coordinates: [  0.889561745330535,  0.116102233110169,  0.921641852588347 ]
  mass: 15.999400
- symbol: O  # 57
  coordinates: [  0.433946349868449,  0.220008575481698,  0.423027121345997 ]
  mass: 15.999400
- symbol: O  # 58
  coordinates: [  0.942932362023657,  0.229186919681316,  0.420537516468543 ]
  mass: 15.999400

phonon:
- q-position: [    0.0000000,    0.0000000,    0.0000000 ]
  distance_from_gamma:  0.000000000
  weight: 1    
  band:
  - # 1
    frequency:    -0.3849017063
    eigenvector:
    - # atom 1
      - [ -0.00632502423975,  0.00000000000000 ]
      - [  0.07526242004691,  0.00000000000000 ]
      - [ -0.02174284200429,  0.00000000000000 ]
    - # atom 2
      - [  0.02395257427495,  0.00000000000000 ]
      - [ -0.07120617016613,  0.00000000000000 ]
      - [  0.09135593225726,  0.00000000000000 ]
    - # atom 3
      - [ -0.33174430086748,  0.00000000000000 ]
      - [ -0.05011780035562,  0.00000000000000 ]
      - [  0.09417306675176,  0.00000000000000 ]
    - # atom 4
      - [ -0.09687531066805,  0.00000000000000 ]
      - [  0.00717175694898,  0.00000000000000 ]
      - [ -0.15244426496611,  0.00000000000000 ]
    - # atom 5
      - [  0.04967520744433,  0.00000000000000 ]
      - [  0.08184296317984,  0.00000000000000 ]
      - [  0.02029366764368,  0.00000000000000 ]
    - # atom 6
      - [  0.10584742918003,  0.00000000000000 ]
      - [  0.11239342172221,  0.00000000000000 ]
      - [ -0.00002647486086,  0.00000000000000 ]
    - # atom 7
      - [ -0.05159879059459,  0.00000000000000 ]
      - [  0.08447518311707,  0.00000000000000 ]
      - [  0.09092627336263,  0.00000000000000 ]
    - # atom 8
      - [ -0.24907910429089,  0.00000000000000 ]
      - [ -0.00794907277263,  0.00000000000000 ]
      - [ -0.01935132317749,  0.00000000000000 ]
    - # atom 9
      - [  0.00238545133747,  0.00000000000000 ]
      - [ -0.02450478711682,  0.00000000000000 ]
      - [ -0.04556271140236,  0.00000000000000 ]
    - # atom 10
      - [ -0.00245231754416,  0.00000000000000 ]
      - [  0.01073690837184,  0.00000000000000 ]
      - [  0.07282098547061,  0.00000000000000 ]
    - # atom 11
      - [ -0.09344979753579,  0.00000000000000 ]
      - [ -0.00779274773233,  0.00000000000000 ]
      - [  0.01711993815205,  0.00000000000000 ]
    - # atom 12
      - [ -0.00414139289825,  0.00000000000000 ]
      - [ -0.02613416259239,  0.00000000000000 ]
      - [ -0.04213944823804,  0.00000000000000 ]
    - # atom 13
      - [  0.04220648622961,  0.00000000000000 ]
      - [  0.03528220616172,  0.00000000000000 ]
      - [  0.00277589126069,  0.00000000000000 ]
    - # atom 14
      - [  0.00459057616105,  0.00000000000000 ]
      - [  0.04527476793617,  0.00000000000000 ]
      - [ -0.03788127310921,  0.00000000000000 ]
    - # atom 15
      - [  0.01831184769426,  0.00000000000000 ]
      - [  0.05501088480912,  0.00000000000000 ]
      - [ -0.02084496196496,  0.00000000000000 ]
    - # atom 16
      - [ -0.00709767831096,  0.00000000000000 ]
      - [  0.05241364097458,  0.00000000000000 ]
      - [ -0.04581594906468,  0.00000000000000 ]
    - # atom 17
      - [ -0.10910785522981,  0.00000000000000 ]
      - [  0.01885943526395,  0.00000000000000 ]
      - [  0.02853273264136,  0.00000000000000 ]
    - # atom 18
      - [ -0.09556157084278,  0.00000000000000 ]
      - [  0.01093626483952,  0.00000000000000 ]
      - [ -0.00811599233937,  0.00000000000000 ]
    - # atom 19
      - [ -0.00789468675613,  0.00000000000000 ]
      - [  0.04642537171709,  0.00000000000000 ]
      - [  0.02301556937489,  0.00000000000000 ]
    - # atom 20
      - [  0.01112664434067,  0.00000000000000 ]
      - [ -0.03527901100863,  0.00000000000000 ]
      - [ -0.03922031903346,  0.00000000000000 ]
    - # atom 21
      - [ -0.00546004486955,  0.00000000000000 ]
      - [  0.03955688781228,  0.00000000000000 ]
      - [ -0.00713250488476,  0.00000000000000 ]
    - # atom 22
      - [ -0.01201888275318,  0.00000000000000 ]
      - [  0.01839897809214,  0.00000000000000 ]
      - [ -0.01110275249553,  0.00000000000000 ]
    - # atom 23
      - [ -0.07180820460195,  0.00000000000000 ]
      - [  0.00215519422849,  0.00000000000000 ]
      - [  0.03292628496905,  0.00000000000000 ]
    - # atom 24
      - [ -0.02528826958009,  0.00000000000000 ]
      - [ -0.02095522793390,  0.00000000000000 ]
      - [  0.02091598285298,  0.00000000000000 ]
    - # atom 25
      - [  0.01866064666968,  0.00000000000000 ]
      - [  0.14132845973863,  0.00000000000000 ]
      - [ -0.12356354886996,  0.00000000000000 ]
    - # atom 26
      - [  0.20155664992625,  0.00000000000000 ]
      - [  0.05819909430812,  0.00000000000000 ]
      - [ -0.08014246716956,  0.00000000000000 ]
    - # atom 27
      - [ -0.06646848165292,  0.00000000000000 ]
      - [ -0.01131824885775,  0.00000000000000 ]
      - [ -0.14220931912145,  0.00000000000000 ]
    - # atom 28
      - [ -0.05148603088642,  0.00000000000000 ]
      - [  0.00360292538343,  0.00000000000000 ]
      - [ -0.11176984373621,  0.00000000000000 ]
    - # atom 29
      - [  0.13755679700332,  0.00000000000000 ]
      - [  0.10550194221430,  0.00000000000000 ]
      - [  0.17735308832045,  0.00000000000000 ]
    - # atom 30
      - [  0.12705618689456,  0.00000000000000 ]
      - [  0.03466898931855,  0.00000000000000 ]
      - [  0.12184201193532,  0.00000000000000 ]
    - # atom 31
      - [ -0.04603508568778,  0.00000000000000 ]
      - [  0.01870562163946,  0.00000000000000 ]
      - [  0.06758716619316,  0.00000000000000 ]
    - # atom 32
      - [ -0.06541296375103,  0.00000000000000 ]
      - [ -0.05200020844949,  0.00000000000000 ]
      - [  0.00979877000625,  0.00000000000000 ]
    - # atom 33
      - [  0.11107233349851,  0.00000000000000 ]
      - [  0.18264974565342,  0.00000000000000 ]
      - [ -0.03850745579976,  0.00000000000000 ]
    - # atom 34
      - [  0.13213407900951,  0.00000000000000 ]
      - [  0.02542006681709,  0.00000000000000 ]
      - [ -0.11998029980154,  0.00000000000000 ]
    - # atom 35
      - [ -0.02839662687639,  0.00000000000000 ]
      - [ -0.00012804252559,  0.00000000000000 ]
      - [  0.06429042790515,  0.00000000000000 ]
    - # atom 36
      - [ -0.01124201011675,  0.00000000000000 ]
      - [  0.01309523007966,  0.00000000000000 ]
      - [  0.00696824974588,  0.00000000000000 ]
    - # atom 37
      - [  0.04741714831085,  0.00000000000000 ]
      - [  0.02909631142346,  0.00000000000000 ]
      - [ -0.00657037803293,  0.00000000000000 ]
    - # atom 38
      - [  0.03513212307339,  0.00000000000000 ]
      - [  0.04636560843051,  0.00000000000000 ]
      - [ -0.08464534897930,  0.00000000000000 ]
    - # atom 39
      - [ -0.02586076282837,  0.00000000000000 ]
      - [  0.02531637406699,  0.00000000000000 ]
      - [ -0.09388903122792,  0.00000000000000 ]
    - # atom 40
      - [ -0.00895747912009,  0.00000000000000 ]
      - [ -0.00487882643678,  0.00000000000000 ]
      - [ -0.11856234186002,  0.00000000000000 ]
    - # atom 41
      - [  0.04276460890933,  0.00000000000000 ]
      - [  0.01854017088415,  0.00000000000000 ]
      - [  0.05095540219926,  0.00000000000000 ]
    - # atom 42
      - [  0.06134810521938,  0.00000000000000 ]
      - [  0.03945268754715,  0.00000000000000 ]
      - [  0.08990125242842,  0.00000000000000 ]
    - # atom 43
      - [ -0.03423645457096,  0.00000000000000 ]
      - [ -0.04269284078083,  0.00000000000000 ]
      - [  0.02447159114377,  0.00000000000000 ]
    - # atom 44
      - [ -0.01390874722655,  0.00000000000000 ]
      - [  0.01622965279301,  0.00000000000000 ]
      - [  0.04531484299951,  0.00000000000000 ]
    - # atom 45
      - [  0.07982955449168,  0.00000000000000 ]
      - [  0.04535456949402,  0.00000000000000 ]
      - [ -0.08011872867894,  0.00000000000000 ]
    - # atom 46
      - [  0.05946893741731,  0.00000000000000 ]
      - [  0.08257647498917,  0.00000000000000 ]
      - [ -0.06212177755141,  0.00000000000000 ]
    - # atom 47
      - [ -0.02310341458489,  0.00000000000000 ]
      - [ -0.02666220681663,  0.00000000000000 ]
      - [  0.06260652165019,  0.00000000000000 ]
    - # atom 48
      - [ -0.11200280792972,  0.00000000000000 ]
      - [ -0.00350666022958,  0.00000000000000 ]
      - [  0.04684583294943,  0.00000000000000 ]
    - # atom 49
      - [  0.07150304914710,  0.00000000000000 ]
      - [  0.06137257129704,  0.00000000000000 ]
      - [ -0.03752525861016,  0.00000000000000 ]
    - # atom 50
      - [  0.08073893556489,  0.00000000000000 ]
      - [  0.07479939818126,  0.00000000000000 ]
      - [ -0.11321785412478,  0.00000000000000 ]
    - # atom 51
      - [ -0.08064963208092,  0.00000000000000 ]
      - [  0.00336254156352,  0.00000000000000 ]
      - [ -0.09446047107997,  0.00000000000000 ]
    - # atom 52
      - [ -0.09190756527374,  0.00000000000000 ]
      - [ -0.03018538522073,  0.00000000000000 ]
      - [ -0.15821271214339,  0.00000000000000 ]
    - # atom 53
      - [  0.12649341909663,  0.00000000000000 ]
      - [  0.07615837117243,  0.00000000000000 ]
      - [  0.13830301299913,  0.00000000000000 ]
    - # atom 54
      - [  0.09309508704506,  0.00000000000000 ]
      - [  0.05663443415105,  0.00000000000000 ]
      - [  0.07496234539459,  0.00000000000000 ]
    - # atom 55
      - [ -0.09750861807591,  0.00000000000000 ]
      - [ -0.05383262344804,  0.00000000000000 ]
      - [  0.00760063607989,  0.00000000000000 ]
    - # atom 56
      - [ -0.06656577954836,  0.00000000000000 ]
      - [  0.01788814863853,  0.00000000000000 ]
      - [  0.07655524847567,  0.00000000000000 ]
    - # atom 57
      - [  0.09559302520788,  0.00000000000000 ]
      - [  0.05779174310316,  0.00000000000000 ]
      - [ -0.07336154159724,  0.00000000000000 ]
    - # atom 58
      - [  0.11284247276191,  0.00000000000000 ]
      - [  0.03223053924193,  0.00000000000000 ]
      - [ -0.10328985406777,  0.00000000000000 ]
  - # 2
    frequency:    -0.1486878859
    eigenvector:
    - # atom 1
      - [  0.25260283244652,  0.00000000000000 ]
      - [ -0.06359837430227,  0.00000000000000 ]
      - [ -0.00340972595988,  0.00000000000000 ]
    - # atom 2
      - [  0.25811703048641,  0.00000000000000 ]
      - [ -0.07731717803057,  0.00000000000000 ]
      - [  0.00713084495860,  0.00000000000000 ]
    - # atom 3
      - [  0.20589455006224,  0.00000000000000 ]
      - [ -0.06487160712228,  0.00000000000000 ]
      - [  0.01089104683404,  0.00000000000000 ]
    - # atom 4
      - [  0.22087081428062,  0.00000000000000 ]
      - [ -0.05571000665805,  0.00000000000000 ]
      - [ -0.02140678380825,  0.00000000000000 ]
    - # atom 5
      - [  0.26221380105162,  0.00000000000000 ]
      - [ -0.06230447685757,  0.00000000000000 ]
      - [ -0.00237969677684,  0.00000000000000 ]
    - # atom 6
      - [  0.26480372639506,  0.00000000000000 ]
      - [ -0.05761538045328,  0.00000000000000 ]
      - [ -0.00157674489191,  0.00000000000000 ]
    - # atom 7
      - [  0.24106847568372,  0.00000000000000 ]
      - [ -0.05790051240648,  0.00000000000000 ]
      - [  0.00849719284999,  0.00000000000000 ]
    - # atom 8
      - [  0.01405684408504,  0.00000000000000 ]
      - [ -0.00717857067022,  0.00000000000000 ]
      - [ -0.00329923917196,  0.00000000000000 ]
    - # atom 9
      - [  0.04850805936188,  0.00000000000000 ]
      - [ -0.01045086268321,  0.00000000000000 ]
      - [ -0.00376441514666,  0.00000000000000 ]
    - # atom 10
      - [  0.04866814582199,  0.00000000000000 ]
      - [ -0.01230596544476,  0.00000000000000 ]
      - [  0.00448616550417,  0.00000000000000 ]
    - # atom 11
      - [  0.12650104741156,  0.00000000000000 ]
      - [ -0.03628939840101,  0.00000000000000 ]
      - [  0.00045576077692,  0.00000000000000 ]
    - # atom 12
      - [  0.13453786014348,  0.00000000000000 ]
      - [ -0.03229753129327,  0.00000000000000 ]
      - [ -0.00598041404136,  0.00000000000000 ]
    - # atom 13
      - [  0.15269966742198,  0.00000000000000 ]
      - [ -0.03633056611787,  0.00000000000000 ]
      - [ -0.00155295835435,  0.00000000000000 ]
    - # atom 14
      - [  0.14799989066773,  0.00000000000000 ]
      - [ -0.03461172072442,  0.00000000000000 ]
      - [ -0.00478462317772,  0.00000000000000 ]
    - # atom 15
      - [  0.14901337962852,  0.00000000000000 ]
      - [ -0.03588323555787,  0.00000000000000 ]
      - [ -0.00285708664560,  0.00000000000000 ]
    - # atom 16
      - [  0.14327635297452,  0.00000000000000 ]
      - [ -0.03307003244763,  0.00000000000000 ]
      - [ -0.00644860652125,  0.00000000000000 ]
    - # atom 17
      - [  0.12634993516107,  0.00000000000000 ]
      - [ -0.03050662007574,  0.00000000000000 ]
      - [  0.00248866165130,  0.00000000000000 ]
    - # atom 18
      - [  0.12971477131113,  0.00000000000000 ]
      - [ -0.03179283708257,  0.00000000000000 ]
      - [ -0.00383877493940,  0.00000000000000 ]
    - # atom 19
      - [  0.14314938520185,  0.00000000000000 ]
      - [ -0.03547657603535,  0.00000000000000 ]
      - [  0.00105209629171,  0.00000000000000 ]
    - # atom 20
      - [  0.14541152205070,  0.00000000000000 ]
      - [ -0.04181821246755,  0.00000000000000 ]
      - [ -0.00576115681202,  0.00000000000000 ]
    - # atom 21
      - [  0.13546523919506,  0.00000000000000 ]
      - [ -0.03367852673049,  0.00000000000000 ]
      - [ -0.00085018900578,  0.00000000000000 ]
    - # atom 22
      - [  0.13591385365486,  0.00000000000000 ]
      - [ -0.03122814993419,  0.00000000000000 ]
      - [ -0.00398487815969,  0.00000000000000 ]
    - # atom 23
      - [  0.08112976813360,  0.00000000000000 ]
      - [ -0.02537920919426,  0.00000000000000 ]
      - [  0.00581161521668,  0.00000000000000 ]
    - # atom 24
      - [  0.08207831185558,  0.00000000000000 ]
      - [ -0.02462067231915,  0.00000000000000 ]
      - [  0.00061874643501,  0.00000000000000 ]
    - # atom 25
      - [  0.08898425925978,  0.00000000000000 ]
      - [ -0.00776567009014,  0.00000000000000 ]
      - [ -0.01551460184109,  0.00000000000000 ]
    - # atom 26
      - [  0.11018417114609,  0.00000000000000 ]
      - [ -0.01600781384518,  0.00000000000000 ]
      - [ -0.01144054053536,  0.00000000000000 ]
    - # atom 27
      - [  0.08131580048953,  0.00000000000000 ]
      - [ -0.02408772704653,  0.00000000000000 ]
      - [ -0.01227459204413,  0.00000000000000 ]
    - # atom 28
      - [  0.08146557043932,  0.00000000000000 ]
      - [ -0.02284511336164,  0.00000000000000 ]
      - [ -0.01016747689713,  0.00000000000000 ]
    - # atom 29
      - [  0.10204874880527,  0.00000000000000 ]
      - [ -0.01076907942984,  0.00000000000000 ]
      - [  0.01976235657681,  0.00000000000000 ]
    - # atom 30
      - [  0.10331151640881,  0.00000000000000 ]
      - [ -0.02137107818328,  0.00000000000000 ]
      - [  0.01527540341944,  0.00000000000000 ]
    - # atom 31
      - [  0.08428663322828,  0.00000000000000 ]
      - [ -0.02321371179281,  0.00000000000000 ]
      - [  0.00130836047669,  0.00000000000000 ]
    - # atom 32
      - [  0.08081601369834,  0.00000000000000 ]
      - [ -0.02617229582905,  0.00000000000000 ]
      - [ -0.00282598034944,  0.00000000000000 ]
    - # atom 33
      - [  0.09987010070568,  0.00000000000000 ]
      - [ -0.00334326397657,  0.00000000000000 ]
      - [ -0.00591231898597,  0.00000000000000 ]
    - # atom 34
      - [  0.10206190100934,  0.00000000000000 ]
      - [ -0.01988102620395,  0.00000000000000 ]
      - [ -0.01441086155220,  0.00000000000000 ]
    - # atom 35
      - [  0.08439750023361,  0.00000000000000 ]
      - [ -0.02521461492049,  0.00000000000000 ]
      - [  0.00685704673455,  0.00000000000000 ]
    - # atom 36
      - [  0.08788640145064,  0.00000000000000 ]
      - [ -0.02488151606117,  0.00000000000000 ]
      - [  0.00098402740068,  0.00000000000000 ]
    - # atom 37
      - [  0.08365610484674,  0.00000000000000 ]
      - [ -0.01695023753980,  0.00000000000000 ]
      - [ -0.00407180180294,  0.00000000000000 ]
    - # atom 38
      - [  0.07939476218027,  0.00000000000000 ]
      - [ -0.01426577633812,  0.00000000000000 ]
      - [ -0.01030811944417,  0.00000000000000 ]
    - # atom 39
      - [  0.08639353239190,  0.00000000000000 ]
      - [ -0.02191839221247,  0.00000000000000 ]
      - [ -0.01023638602434,  0.00000000000000 ]
    - # atom 40
      - [  0.08755692636256,  0.00000000000000 ]
      - [ -0.02539318830329,  0.00000000000000 ]
      - [ -0.01341833616458,  0.00000000000000 ]
    - # atom 41
      - [  0.07966711905488,  0.00000000000000 ]
      - [ -0.01371804008018,  0.00000000000000 ]
      - [  0.00105081523335,  0.00000000000000 ]
    - # atom 42
      - [  0.08454464086021,  0.00000000000000 ]
      - [ -0.01649248261694,  0.00000000000000 ]
      - [  0.00452891518743,  0.00000000000000 ]
    - # atom 43
      - [  0.08574023360866,  0.00000000000000 ]
      - [ -0.02934583453812,  0.00000000000000 ]
      - [  0.00062325440198,  0.00000000000000 ]
    - # atom 44
      - [  0.08790039538940,  0.00000000000000 ]
      - [ -0.02524578064116,  0.00000000000000 ]
      - [  0.00261264521245,  0.00000000000000 ]
    - # atom 45
      - [  0.08568443952256,  0.00000000000000 ]
      - [ -0.01532514197725,  0.00000000000000 ]
      - [ -0.00286039301077,  0.00000000000000 ]
    - # atom 46
      - [  0.08297104176673,  0.00000000000000 ]
      - [ -0.01232260988475,  0.00000000000000 ]
      - [ -0.00409786551533,  0.00000000000000 ]
    - # atom 47
      - [  0.07888089972298,  0.00000000000000 ]
      - [ -0.02577929569664,  0.00000000000000 ]
      - [  0.00751249814158,  0.00000000000000 ]
    - # atom 48
      - [  0.07423324826550,  0.00000000000000 ]
      - [ -0.02322220740723,  0.00000000000000 ]
      - [  0.00554467816506,  0.00000000000000 ]
    - # atom 49
      - [  0.09573771346897,  0.00000000000000 ]
      - [ -0.01937642273001,  0.00000000000000 ]
      - [ -0.00425589185533,  0.00000000000000 ]
    - # atom 50
      - [  0.09604583743361,  0.00000000000000 ]
      - [ -0.01832694835134,  0.00000000000000 ]
      - [ -0.01123206925245,  0.00000000000000 ]
    - # atom 51
      - [  0.07593955064107,  0.00000000000000 ]
      - [ -0.02380681624716,  0.00000000000000 ]
      - [ -0.01055586492964,  0.00000000000000 ]
    - # atom 52
      - [  0.07387088583963,  0.00000000000000 ]
      - [ -0.02383955281785,  0.00000000000000 ]
      - [ -0.01653970818974,  0.00000000000000 ]
    - # atom 53
      - [  0.10132517807893,  0.00000000000000 ]
      - [ -0.01595064891039,  0.00000000000000 ]
      - [  0.01377805330690,  0.00000000000000 ]
    - # atom 54
      - [  0.09820643555305,  0.00000000000000 ]
      - [ -0.01850640819001,  0.00000000000000 ]
      - [  0.00708785549193,  0.00000000000000 ]
    - # atom 55
      - [  0.07451807622660,  0.00000000000000 ]
      - [ -0.02796812328082,  0.00000000000000 ]
      - [ -0.00261359248252,  0.00000000000000 ]
    - # atom 56
      - [  0.07620597361212,  0.00000000000000 ]
      - [ -0.02165402510867,  0.00000000000000 ]
      - [  0.00535139358065,  0.00000000000000 ]
    - # atom 57
      - [  0.09938047189116,  0.00000000000000 ]
      - [ -0.01941782161523,  0.00000000000000 ]
      - [ -0.00871528544739,  0.00000000000000 ]
    - # atom 58
      - [  0.10154499806098,  0.00000000000000 ]
      - [ -0.02292502008369,  0.00000000000000 ]
      - [ -0.01346737134405,  0.00000000000000 ]
  - # 3
    frequency:    -0.0707094660
    eigenvector:
    - # atom 1
      - [ -0.05913591874182,  0.00000000000000 ]
      - [ -0.21803341061527,  0.00000000000000 ]
      - [ -0.12199407758326,  0.00000000000000 ]
    - # atom 2
      - [ -0.05171567332764,  0.00000000000000 ]
      - [ -0.23108621051522,  0.00000000000000 ]
      - [ -0.10639052398505,  0.00000000000000 ]
    - # atom 3
      - [ -0.09899654271300,  0.00000000000000 ]
      - [ -0.21238030651080,  0.00000000000000 ]
      - [ -0.10939819223840,  0.00000000000000 ]
    - # atom 4
      - [ -0.07624547739722,  0.00000000000000 ]
      - [ -0.21241831398692,  0.00000000000000 ]
      - [ -0.13958310798969,  0.00000000000000 ]
    - # atom 5
      - [ -0.04713900205831,  0.00000000000000 ]
      - [ -0.21085731973013,  0.00000000000000 ]
      - [ -0.11965738861911,  0.00000000000000 ]
    - # atom 6
      - [ -0.04152303552412,  0.00000000000000 ]
      - [ -0.21007255706976,  0.00000000000000 ]
      - [ -0.12104567487594,  0.00000000000000 ]
    - # atom 7
      - [ -0.06124736284512,  0.00000000000000 ]
      - [ -0.20400835367345,  0.00000000000000 ]
      - [ -0.10787935198291,  0.00000000000000 ]
    - # atom 8
      - [ -0.04686453199204,  0.00000000000000 ]
      - [ -0.03453433521168,  0.00000000000000 ]
      - [ -0.03090613267448,  0.00000000000000 ]
    - # atom 9
      - [ -0.01081921336341,  0.00000000000000 ]
      - [ -0.04644234008155,  0.00000000000000 ]
      - [ -0.02695005239266,  0.00000000000000 ]
    - # atom 10
      - [ -0.01078424079470,  0.00000000000000 ]
      - [ -0.04119528154165,  0.00000000000000 ]
      - [ -0.01326767056982,  0.00000000000000 ]
    - # atom 11
      - [ -0.04649210713905,  0.00000000000000 ]
      - [ -0.12424674325613,  0.00000000000000 ]
      - [ -0.07007674202942,  0.00000000000000 ]
    - # atom 12
      - [ -0.03613823539773,  0.00000000000000 ]
      - [ -0.12907255489169,  0.00000000000000 ]
      - [ -0.07769222438343,  0.00000000000000 ]
    - # atom 13
      - [ -0.02799011319388,  0.00000000000000 ]
      - [ -0.12634338418640,  0.00000000000000 ]
      - [ -0.07258589884321,  0.00000000000000 ]
    - # atom 14
      - [ -0.03133168055130,  0.00000000000000 ]
      - [ -0.12465419738158,  0.00000000000000 ]
      - [ -0.07453503094367,  0.00000000000000 ]
    - # atom 15
      - [ -0.02960516029030,  0.00000000000000 ]
      - [ -0.12141658459490,  0.00000000000000 ]
      - [ -0.07232818080812,  0.00000000000000 ]
    - # atom 16
      - [ -0.03356875364435,  0.00000000000000 ]
      - [ -0.12228260213888,  0.00000000000000 ]
      - [ -0.07702538707611,  0.00000000000000 ]
    - # atom 17
      - [ -0.04959084434095,  0.00000000000000 ]
      - [ -0.11937114969193,  0.00000000000000 ]
      - [ -0.06769616861660,  0.00000000000000 ]
    - # atom 18
      - [ -0.04517095748247,  0.00000000000000 ]
      - [ -0.12296627963799,  0.00000000000000 ]
      - [ -0.07034099341914,  0.00000000000000 ]
    - # atom 19
      - [ -0.03456595231761,  0.00000000000000 ]
      - [ -0.12648522628033,  0.00000000000000 ]
      - [ -0.06884786696936,  0.00000000000000 ]
    - # atom 20
      - [ -0.03286004968251,  0.00000000000000 ]
      - [ -0.13326715616246,  0.00000000000000 ]
      - [ -0.07561550694772,  0.00000000000000 ]
    - # atom 21
      - [ -0.03287005228751,  0.00000000000000 ]
      - [ -0.12073651993614,  0.00000000000000 ]
      - [ -0.07222266464222,  0.00000000000000 ]
    - # atom 22
      - [ -0.03138220084403,  0.00000000000000 ]
      - [ -0.12399901887002,  0.00000000000000 ]
      - [ -0.07212085583008,  0.00000000000000 ]
    - # atom 23
      - [ -0.02794010595282,  0.00000000000000 ]
      - [ -0.07407344038175,  0.00000000000000 ]