phonopy:
  version: 2.4.2
  frequency_unit_conversion_factor: 15.633302
  symmetry_tolerance: 1.00000e-05
  configuration:
    tdisp: ".TRUE."
    tmin: "300"
    tmax: "300"
    tstep: "1"
    dim: "1 1 1"
    mp: "1 1 1"
    fmin: "-1000.0"
    projection_direction: "-0.231533 0.811756 -0.409588"
    read_force_constants: ".true."

physical_unit:
  atomic_mass: "AMU"
  length: "Angstrom"
  force_constants: "eV/Angstrom^2"

supercell_matrix:
- [   1,   0,   0 ]
- [   0,   1,   0 ]
- [   0,   0,   1 ]

space_group:
  type: "P1"
  number: 1
  Hall_symbol: "P 1"

primitive_cell:
  lattice:
  - [    10.948160171500000,     0.000000000000000,     0.000000000000000 ] # a
  - [    -2.737040674100000,     4.740692052200000,     0.000000000000000 ] # b
  - [     0.000000000000000,     0.000000000000000,    13.409000396700000 ] # c
  points:
  - symbol: La # 1
    coordinates: [  0.335366440446065,  0.339502433788209,  0.592587427450623 ]
    mass: 138.905470
  - symbol: La # 2
    coordinates: [  0.832238505442625,  0.338840226598086,  0.589025088076711 ]
    mass: 138.905470
  - symbol: La # 3
    coordinates: [  0.175800608025533,  0.684416689751569,  0.916829945741923 ]
    mass: 138.905470
  - symbol: La # 4
    coordinates: [  0.672252454014682,  0.679605581538991,  0.921807917512502 ]
    mass: 138.905470
  - symbol: La # 5
    coordinates: [  0.169413535196526,  0.674581119529592,  0.415749507388164 ]
    mass: 138.905470
  - symbol: La # 6
    coordinates: [  0.663256334582098,  0.667247780483757,  0.416269694144590 ]
    mass: 138.905470
  - symbol: La # 7
    coordinates: [  0.006500108075904,  0.007572473091185,  0.244845519547316 ]
    mass: 138.905470
  - symbol: Li # 8
    coordinates: [  0.510490619399176,  0.014202096557361,  0.803142051896900 ]
    mass: 6.941000
  - symbol: Li # 9
    coordinates: [  0.402833263249391,  0.490585491949947,  0.104867996139613 ]
    mass: 6.941000
  - symbol: Li # 10
    coordinates: [  0.901608265773660,  0.463904185772864,  0.067165508060470 ]
    mass: 6.941000
  - symbol: Ti # 11
    coordinates: [  0.007996009653042,  0.024978233056120,  0.998567472205367 ]
    mass: 47.867000
  - symbol: Ti # 12
    coordinates: [  0.512565060285910,  0.026618233812340,  0.013194952428768 ]
    mass: 47.867000
  - symbol: Ti # 13
    coordinates: [  0.001532139600193,  0.008539447333160,  0.505457776823390 ]
    mass: 47.867000
  - symbol: Ti # 14
    coordinates: [  0.499778642003578,  0.002221895218487,  0.502564392817261 ]
    mass: 47.867000
  - symbol: Ti # 15
    coordinates: [  0.344047831893682,  0.350406018964348,  0.324990255445812 ]
    mass: 47.867000
  - symbol: Ti # 16
    coordinates: [  0.824911674608487,  0.331608039246806,  0.325081214093558 ]
    mass: 47.867000
  - symbol: Ti # 17
    coordinates: [  0.340774384873556,  0.343728223376476,  0.837798287237682 ]
    mass: 47.867000
  - symbol: Ti # 18
    coordinates: [  0.840126876305695,  0.347251545130314,  0.835418108602005 ]
    mass: 47.867000
  - symbol: Ti # 19
    coordinates: [  0.168702064058847,  0.676527570525007,  0.676441985608598 ]
    mass: 47.867000
  - symbol: Ti # 20
    coordinates: [  0.668539668957990,  0.673667278394060,  0.677014427736377 ]
    mass: 47.867000
  - symbol: Ti # 21
    coordinates: [  0.184820865643668,  0.694007536734594,  0.163236983940925 ]
    mass: 47.867000
  - symbol: Ti # 22
    coordinates: [  0.671537160185480,  0.668513633680459,  0.165588050034598 ]
    mass: 47.867000
  - symbol: O  # 23
    coordinates: [  0.261489072079538,  0.999953966727906,  0.252808187232875 ]
    mass: 15.999400
  - symbol: O  # 24
    coordinates: [  0.778575057947158,  0.987196416617038,  0.258129839303347 ]
    mass: 15.999400
  - symbol: O  # 25
    coordinates: [  0.223108525398141,  0.002066498539977,  0.750487373825511 ]
    mass: 15.999400
  - symbol: O  # 26
    coordinates: [  0.714421675990443,  0.993307236972217,  0.756237257379732 ]
    mass: 15.999400
  - symbol: O  # 27
    coordinates: [  0.999175597736176,  0.554236171119046,  0.256247012123311 ]
    mass: 15.999400
  - symbol: O  # 28
    coordinates: [  0.500909124549760,  0.557313484692357,  0.251348246631628 ]
    mass: 15.999400
  - symbol: O  # 29
    coordinates: [  0.995798020941793,  0.452037080711599,  0.749020451260916 ]
    mass: 15.999400
  - symbol: O  # 30
    coordinates: [  0.496487435955132,  0.432010263606725,  0.746331026139223 ]
    mass: 15.999400
  - symbol: O  # 31
    coordinates: [  0.218235675755663,  0.458552690814786,  0.258595525982379 ]
    mass: 15.999400
  - symbol: O  # 32
    coordinates: [  0.720880582583318,  0.459955029947026,  0.257926988263468 ]
    mass: 15.999400
  - symbol: O  # 33
    coordinates: [  0.279236317797976,  0.564089699777308,  0.751870413212709 ]
    mass: 15.999400
  - symbol: O  # 34
    coordinates: [  0.771788373790511,  0.544755235900956,  0.750558463567037 ]
    mass: 15.999400
  - symbol: O  # 35
    coordinates: [  0.116050561213600,  0.346832140674845,  0.578291187622726 ]
    mass: 15.999400
  - symbol: O  # 36
    coordinates: [  0.613466293465780,  0.352072096983102,  0.576027171291460 ]
    mass: 15.999400
  - symbol: O  # 37
    coordinates: [  0.048909531350269,  0.327702053155118,  0.088597573506901 ]
    mass: 15.999400
  - symbol: O  # 38
    coordinates: [  0.546731485579205,  0.356207359474544,  0.076906669859089 ]
    mass: 15.999400
  - symbol: O  # 39
    coordinates: [  0.327568979672357,  0.888202346552418,  0.579756781001024 ]
    mass: 15.999400
  - symbol: O  # 40
    coordinates: [  0.826270440772881,  0.889650652632691,  0.579617928142396 ]
    mass: 15.999400
  - symbol: O  # 41
    coordinates: [  0.327492879016850,  0.752459440055599,  0.074232898085828 ]
    mass: 15.999400
  - symbol: O  # 42
    coordinates: [  0.832342102435502,  0.758407154996607,  0.087031342695654 ]
    mass: 15.999400
  - symbol: O  # 43
    coordinates: [  0.057688414387851,  0.770530209490216,  0.575297898105524 ]
    mass: 15.999400
  - symbol: O  # 44
    coordinates: [  0.557487526883173,  0.781376454307277,  0.582260489982624 ]
    mass: 15.999400
  - symbol: O  # 45
    coordinates: [  0.103605910078678,  0.870099638856284,  0.085031637383912 ]
    mass: 15.999400
  - symbol: O  # 46
    coordinates: [  0.613397164702347,  0.886782665599299,  0.079816864875465 ]
    mass: 15.999400
  - symbol: O  # 47
    coordinates: [  0.451956395162511,  0.678646310932436,  0.911530878628592 ]
    mass: 15.999400
  - symbol: O  # 48
    coordinates: [  0.943073592496020,  0.656055661236850,  0.924483094338024 ]
    mass: 15.999400
  - symbol: O  # 49
    coordinates: [  0.386586487315096,  0.650980388096156,  0.426670984960525 ]
    mass: 15.999400
  - symbol: O  # 50
    coordinates: [  0.884116932900407,  0.666545424224000,  0.418938826386096 ]
    mass: 15.999400
  - symbol: O  # 51
    coordinates: [  0.171760524827686,  0.227995230539294,  0.922177642674365 ]
    mass: 15.999400
  - symbol: O  # 52
    coordinates: [  0.662983209150743,  0.228027272858497,  0.917140742047781 ]
    mass: 15.999400
  - symbol: O  # 53
    coordinates: [  0.157753431288848,  0.108203082954692,  0.414022151099871 ]
    mass: 15.999400
  - symbol: O  # 54
    coordinates: [  0.671896746426017,  0.118726136130335,  0.425434727160960 ]
    mass: 15.999400
  - symbol: O  # 55
    coordinates: [  0.392606343850163,  0.107451685015866,  0.910839578893019 ]
    mass: 15.999400
  - symbol: O  # 56
    coordinates: [  0.889561745330535,  0.116102233110169,  0.921641852588347 ]
    mass: 15.999400
  - symbol: O  # 57
    coordinates: [  0.433946349868449,  0.220008575481698,  0.423027121345997 ]
    mass: 15.999400
  - symbol: O  # 58
    coordinates: [  0.942932362023657,  0.229186919681316,  0.420537516468543 ]
    mass: 15.999400
  reciprocal_lattice: # without 2pi
  - [     0.091339547863318,     0.052734928762097,     0.000000000000000 ] # a*
  - [     0.000000000000000,     0.210939666400802,     0.000000000000000 ] # b*
  - [     0.000000000000000,     0.000000000000000,     0.074576774585382 ] # c*

unit_cell:
  lattice:
  - [    10.948160171500000,     0.000000000000000,     0.000000000000000 ] # a
  - [    -2.737040674100000,     4.740692052200000,     0.000000000000000 ] # b
  - [     0.000000000000000,     0.000000000000000,    13.409000396700000 ] # c
  points:
  - symbol: La # 1
    coordinates: [  0.335366440446065,  0.339502433788209,  0.592587427450623 ]
    mass: 138.905470
    reduced_to: 1
  - symbol: La # 2
    coordinates: [  0.832238505442625,  0.338840226598086,  0.589025088076711 ]
    mass: 138.905470
    reduced_to: 2
  - symbol: La # 3
    coordinates: [  0.175800608025533,  0.684416689751569,  0.916829945741923 ]
    mass: 138.905470
    reduced_to: 3
  - symbol: La # 4
    coordinates: [  0.672252454014682,  0.679605581538991,  0.921807917512502 ]
    mass: 138.905470
    reduced_to: 4
  - symbol: La # 5
    coordinates: [  0.169413535196526,  0.674581119529592,  0.415749507388164 ]
    mass: 138.905470
    reduced_to: 5
  - symbol: La # 6
    coordinates: [  0.663256334582098,  0.667247780483757,  0.416269694144590 ]
    mass: 138.905470
    reduced_to: 6
  - symbol: La # 7
    coordinates: [  0.006500108075904,  0.007572473091185,  0.244845519547316 ]
    mass: 138.905470
    reduced_to: 7
  - symbol: Li # 8
    coordinates: [  0.510490619399176,  0.014202096557361,  0.803142051896900 ]
    mass: 6.941000
    reduced_to: 8
  - symbol: Li # 9
    coordinates: [  0.402833263249391,  0.490585491949947,  0.104867996139613 ]
    mass: 6.941000
    reduced_to: 9
  - symbol: Li # 10
    coordinates: [  0.901608265773660,  0.463904185772864,  0.067165508060470 ]
    mass: 6.941000
    reduced_to: 10
  - symbol: Ti # 11
    coordinates: [  0.007996009653042,  0.024978233056120, -0.001432527794633 ]
    mass: 47.867000
    reduced_to: 11
  - symbol: Ti # 12
    coordinates: [  0.512565060285910,  0.026618233812340,  0.013194952428768 ]
    mass: 47.867000
    reduced_to: 12
  - symbol: Ti # 13
    coordinates: [  0.001532139600193,  0.008539447333160,  0.505457776823390 ]
    mass: 47.867000
    reduced_to: 13
  - symbol: Ti # 14
    coordinates: [  0.499778642003578,  0.002221895218487,  0.502564392817261 ]
    mass: 47.867000
    reduced_to: 14
  - symbol: Ti # 15
    coordinates: [  0.344047831893682,  0.350406018964348,  0.324990255445812 ]
    mass: 47.867000
    reduced_to: 15
  - symbol: Ti # 16
    coordinates: [  0.824911674608487,  0.331608039246806,  0.325081214093558 ]
    mass: 47.867000
    reduced_to: 16
  - symbol: Ti # 17
    coordinates: [  0.340774384873556,  0.343728223376476,  0.837798287237682 ]
    mass: 47.867000
    reduced_to: 17
  - symbol: Ti # 18
    coordinates: [  0.840126876305695,  0.347251545130314,  0.835418108602005 ]
    mass: 47.867000
    reduced_to: 18
  - symbol: Ti # 19
    coordinates: [  0.168702064058847,  0.676527570525007,  0.676441985608598 ]
    mass: 47.867000
    reduced_to: 19
  - symbol: Ti # 20
    coordinates: [  0.668539668957990,  0.673667278394060,  0.677014427736377 ]
    mass: 47.867000
    reduced_to: 20
  - symbol: Ti # 21
    coordinates: [  0.184820865643668,  0.694007536734594,  0.163236983940925 ]
    mass: 47.867000
    reduced_to: 21
  - symbol: Ti # 22
    coordinates: [  0.671537160185480,  0.668513633680459,  0.165588050034598 ]
    mass: 47.867000
    reduced_to: 22
  - symbol: O  # 23
    coordinates: [  0.261489072079538, -0.000046033272094,  0.252808187232875 ]
    mass: 15.999400
    reduced_to: 23
  - symbol: O  # 24
    coordinates: [  0.778575057947158,  0.987196416617038,  0.258129839303347 ]
    mass: 15.999400
    reduced_to: 24
  - symbol: O  # 25
    coordinates: [  0.223108525398141,  0.002066498539977,  0.750487373825511 ]
    mass: 15.999400
    reduced_to: 25
  - symbol: O  # 26
    coordinates: [  0.714421675990443,  0.993307236972217,  0.756237257379732 ]
    mass: 15.999400
    reduced_to: 26
  - symbol: O  # 27
    coordinates: [ -0.000824402263823,  0.554236171119046,  0.256247012123311 ]
    mass: 15.999400
    reduced_to: 27
  - symbol: O  # 28
    coordinates: [  0.500909124549760,  0.557313484692357,  0.251348246631628 ]
    mass: 15.999400
    reduced_to: 28
  - symbol: O  # 29
    coordinates: [  0.995798020941793,  0.452037080711599,  0.749020451260916 ]
    mass: 15.999400
    reduced_to: 29
  - symbol: O  # 30
    coordinates: [  0.496487435955132,  0.432010263606725,  0.746331026139223 ]
    mass: 15.999400
    reduced_to: 30
  - symbol: O  # 31
    coordinates: [  0.218235675755663,  0.458552690814786,  0.258595525982379 ]
    mass: 15.999400
    reduced_to: 31
  - symbol: O  # 32
    coordinates: [  0.720880582583318,  0.459955029947026,  0.257926988263468 ]
    mass: 15.999400
    reduced_to: 32
  - symbol: O  # 33
    coordinates: [  0.279236317797976,  0.564089699777308,  0.751870413212709 ]
    mass: 15.999400
    reduced_to: 33
  - symbol: O  # 34
    coordinates: [  0.771788373790511,  0.544755235900956,  0.750558463567037 ]
    mass: 15.999400
    reduced_to: 34
  - symbol: O  # 35
    coordinates: [  0.116050561213600,  0.346832140674845,  0.578291187622726 ]
    mass: 15.999400
    reduced_to: 35
  - symbol: O  # 36
    coordinates: [  0.613466293465780,  0.352072096983102,  0.576027171291460 ]
    mass: 15.999400
    reduced_to: 36
  - symbol: O  # 37
    coordinates: [  0.048909531350269,  0.327702053155118,  0.088597573506901 ]
    mass: 15.999400
    reduced_to: 37
  - symbol: O  # 38
    coordinates: [  0.546731485579205,  0.356207359474544,  0.076906669859089 ]
    mass: 15.999400
    reduced_to: 38
  - symbol: O  # 39
    coordinates: [  0.327568979672357,  0.888202346552418,  0.579756781001024 ]
    mass: 15.999400
    reduced_to: 39
  - symbol: O  # 40
    coordinates: [  0.826270440772881,  0.889650652632691,  0.579617928142396 ]
    mass: 15.999400
    reduced_to: 40
  - symbol: O  # 41
    coordinates: [  0.327492879016850,  0.752459440055599,  0.074232898085828 ]
    mass: 15.999400
    reduced_to: 41
  - symbol: O  # 42
    coordinates: [  0.832342102435502,  0.758407154996607,  0.087031342695654 ]
    mass: 15.999400
    reduced_to: 42
  - symbol: O  # 43
    coordinates: [  0.057688414387851,  0.770530209490216,  0.575297898105524 ]
    mass: 15.999400
    reduced_to: 43
  - symbol: O  # 44
    coordinates: [  0.557487526883173,  0.781376454307277,  0.582260489982624 ]
    mass: 15.999400
    reduced_to: 44
  - symbol: O  # 45
    coordinates: [  0.103605910078678,  0.870099638856284,  0.085031637383912 ]
    mass: 15.999400
    reduced_to: 45
  - symbol: O  # 46
    coordinates: [  0.613397164702347,  0.886782665599299,  0.079816864875465 ]
    mass: 15.999400
    reduced_to: 46
  - symbol: O  # 47
    coordinates: [  0.451956395162511,  0.678646310932436,  0.911530878628592 ]
    mass: 15.999400
    reduced_to: 47
  - symbol: O  # 48
    coordinates: [  0.943073592496020,  0.656055661236850,  0.924483094338024 ]
    mass: 15.999400
    reduced_to: 48
  - symbol: O  # 49
    coordinates: [  0.386586487315096,  0.650980388096156,  0.426670984960525 ]
    mass: 15.999400
    reduced_to: 49
  - symbol: O  # 50
    coordinates: [  0.884116932900407,  0.666545424224000,  0.418938826386096 ]
    mass: 15.999400
    reduced_to: 50
  - symbol: O  # 51
    coordinates: [  0.171760524827686,  0.227995230539294,  0.922177642674365 ]
    mass: 15.999400
    reduced_to: 51
  - symbol: O  # 52
    coordinates: [  0.662983209150743,  0.228027272858497,  0.917140742047781 ]
    mass: 15.999400
    reduced_to: 52
  - symbol: O  # 53
    coordinates: [  0.157753431288848,  0.108203082954692,  0.414022151099871 ]
    mass: 15.999400
    reduced_to: 53
  - symbol: O  # 54
    coordinates: [  0.671896746426017,  0.118726136130335,  0.425434727160960 ]
    mass: 15.999400
    reduced_to: 54
  - symbol: O  # 55
    coordinates: [  0.392606343850163,  0.107451685015866,  0.910839578893019 ]
    mass: 15.999400
    reduced_to: 55
  - symbol: O  # 56
    coordinates: [  0.889561745330535,  0.116102233110169,  0.921641852588347 ]
    mass: 15.999400
    reduced_to: 56
  - symbol: O  # 57
    coordinates: [  0.433946349868449,  0.220008575481698,  0.423027121345997 ]
    mass: 15.999400
    reduced_to: 57
  - symbol: O  # 58
    coordinates: [  0.942932362023657,  0.229186919681316,  0.420537516468543 ]
    mass: 15.999400
    reduced_to: 58

supercell:
  lattice:
  - [    10.948160171500000,     0.000000000000000,     0.000000000000000 ] # a
  - [    -2.737040674100000,     4.740692052200000,     0.000000000000000 ] # b
  - [     0.000000000000000,     0.000000000000000,    13.409000396700000 ] # c
  points:
  - symbol: La # 1
    coordinates: [  0.335366440446065,  0.339502433788209,  0.592587427450623 ]
    mass: 138.905470
    reduced_to: 1
  - symbol: La # 2
    coordinates: [  0.832238505442625,  0.338840226598086,  0.589025088076711 ]
    mass: 138.905470
    reduced_to: 2
  - symbol: La # 3
    coordinates: [  0.175800608025533,  0.684416689751569,  0.916829945741923 ]
    mass: 138.905470
    reduced_to: 3
  - symbol: La # 4
    coordinates: [  0.672252454014682,  0.679605581538991,  0.921807917512502 ]
    mass: 138.905470
    reduced_to: 4
  - symbol: La # 5
    coordinates: [  0.169413535196526,  0.674581119529592,  0.415749507388164 ]
    mass: 138.905470
    reduced_to: 5
  - symbol: La # 6
    coordinates: [  0.663256334582098,  0.667247780483757,  0.416269694144590 ]
    mass: 138.905470
    reduced_to: 6
  - symbol: La # 7
    coordinates: [  0.006500108075904,  0.007572473091185,  0.244845519547316 ]
    mass: 138.905470
    reduced_to: 7
  - symbol: Li # 8
    coordinates: [  0.510490619399176,  0.014202096557361,  0.803142051896900 ]
    mass: 6.941000
    reduced_to: 8
  - symbol: Li # 9
    coordinates: [  0.402833263249391,  0.490585491949947,  0.104867996139613 ]
    mass: 6.941000
    reduced_to: 9
  - symbol: Li # 10
    coordinates: [  0.901608265773660,  0.463904185772864,  0.067165508060470 ]
    mass: 6.941000
    reduced_to: 10
  - symbol: Ti # 11
    coordinates: [  0.007996009653042,  0.024978233056120,  0.998567472205367 ]
    mass: 47.867000
    reduced_to: 11
  - symbol: Ti # 12
    coordinates: [  0.512565060285910,  0.026618233812340,  0.013194952428768 ]
    mass: 47.867000
    reduced_to: 12
  - symbol: Ti # 13
    coordinates: [  0.001532139600193,  0.008539447333160,  0.505457776823390 ]
    mass: 47.867000
    reduced_to: 13
  - symbol: Ti # 14
    coordinates: [  0.499778642003578,  0.002221895218487,  0.502564392817261 ]
    mass: 47.867000
    reduced_to: 14
  - symbol: Ti # 15
    coordinates: [  0.344047831893682,  0.350406018964348,  0.324990255445812 ]
    mass: 47.867000
    reduced_to: 15
  - symbol: Ti # 16
    coordinates: [  0.824911674608487,  0.331608039246806,  0.325081214093558 ]
    mass: 47.867000
    reduced_to: 16
  - symbol: Ti # 17
    coordinates: [  0.340774384873556,  0.343728223376476,  0.837798287237682 ]
    mass: 47.867000
    reduced_to: 17
  - symbol: Ti # 18
    coordinates: [  0.840126876305695,  0.347251545130314,  0.835418108602005 ]
    mass: 47.867000
    reduced_to: 18
  - symbol: Ti # 19
    coordinates: [  0.168702064058847,  0.676527570525007,  0.676441985608598 ]
    mass: 47.867000
    reduced_to: 19
  - symbol: Ti # 20
    coordinates: [  0.668539668957990,  0.673667278394060,  0.677014427736377 ]
    mass: 47.867000
    reduced_to: 20
  - symbol: Ti # 21
    coordinates: [  0.184820865643668,  0.694007536734594,  0.163236983940925 ]
    mass: 47.867000
    reduced_to: 21
  - symbol: Ti # 22
    coordinates: [  0.671537160185480,  0.668513633680459,  0.165588050034598 ]
    mass: 47.867000
    reduced_to: 22
  - symbol: O  # 23
    coordinates: [  0.261489072079538,  0.999953966727906,  0.252808187232875 ]
    mass: 15.999400
    reduced_to: 23
  - symbol: O  # 24
    coordinates: [  0.778575057947158,  0.987196416617038,  0.258129839303347 ]
    mass: 15.999400
    reduced_to: 24
  - symbol: O  # 25
    coordinates: [  0.223108525398141,  0.002066498539977,  0.750487373825511 ]
    mass: 15.999400
    reduced_to: 25
  - symbol: O  # 26
    coordinates: [  0.714421675990443,  0.993307236972217,  0.756237257379732 ]
    mass: 15.999400
    reduced_to: 26
  - symbol: O  # 27
    coordinates: [  0.999175597736176,  0.554236171119046,  0.256247012123311 ]
    mass: 15.999400
    reduced_to: 27
  - symbol: O  # 28
    coordinates: [  0.500909124549760,  0.557313484692357,  0.251348246631628 ]
    mass: 15.999400
    reduced_to: 28
  - symbol: O  # 29
    coordinates: [  0.995798020941793,  0.452037080711599,  0.749020451260916 ]
    mass: 15.999400
    reduced_to: 29
  - symbol: O  # 30
    coordinates: [  0.496487435955132,  0.432010263606725,  0.746331026139223 ]
    mass: 15.999400
    reduced_to: 30
  - symbol: O  # 31
    coordinates: [  0.218235675755663,  0.458552690814786,  0.258595525982379 ]
    mass: 15.999400
    reduced_to: 31
  - symbol: O  # 32
    coordinates: [  0.720880582583318,  0.459955029947026,  0.257926988263468 ]
    mass: 15.999400
    reduced_to: 32
  - symbol: O  # 33
    coordinates: [  0.279236317797976,  0.564089699777308,  0.751870413212709 ]
    mass: 15.999400
    reduced_to: 33
  - symbol: O  # 34
    coordinates: [  0.771788373790511,  0.544755235900956,  0.750558463567037 ]
    mass: 15.999400
    reduced_to: 34
  - symbol: O  # 35
    coordinates: [  0.116050561213600,  0.346832140674845,  0.578291187622726 ]
    mass: 15.999400
    reduced_to: 35
  - symbol: O  # 36
    coordinates: [  0.613466293465780,  0.352072096983102,  0.576027171291460 ]
    mass: 15.999400
    reduced_to: 36
  - symbol: O  # 37
    coordinates: [  0.048909531350269,  0.327702053155118,  0.088597573506901 ]
    mass: 15.999400
    reduced_to: 37
  - symbol: O  # 38
    coordinates: [  0.546731485579205,  0.356207359474544,  0.076906669859089 ]
    mass: 15.999400
    reduced_to: 38
  - symbol: O  # 39
    coordinates: [  0.327568979672357,  0.888202346552418,  0.579756781001024 ]
    mass: 15.999400
    reduced_to: 39
  - symbol: O  # 40
    coordinates: [  0.826270440772881,  0.889650652632691,  0.579617928142396 ]
    mass: 15.999400
    reduced_to: 40
  - symbol: O  # 41
    coordinates: [  0.327492879016850,  0.752459440055599,  0.074232898085828 ]
    mass: 15.999400
    reduced_to: 41
  - symbol: O  # 42
    coordinates: [  0.832342102435502,  0.758407154996607,  0.087031342695654 ]
    mass: 15.999400
    reduced_to: 42
  - symbol: O  # 43
    coordinates: [  0.057688414387851,  0.770530209490216,  0.575297898105524 ]
    mass: 15.999400
    reduced_to: 43
  - symbol: O  # 44
    coordinates: [  0.557487526883173,  0.781376454307277,  0.582260489982624 ]
    mass: 15.999400
    reduced_to: 44
  - symbol: O  # 45
    coordinates: [  0.103605910078678,  0.870099638856284,  0.085031637383912 ]
    mass: 15.999400
    reduced_to: 45
  - symbol: O  # 46
    coordinates: [  0.613397164702347,  0.886782665599299,  0.079816864875465 ]
    mass: 15.999400
    reduced_to: 46
  - symbol: O  # 47
    coordinates: [  0.451956395162511,  0.678646310932436,  0.911530878628592 ]
    mass: 15.999400
    reduced_to: 47
  - symbol: O  # 48
    coordinates: [  0.943073592496020,  0.656055661236850,  0.924483094338024 ]
    mass: 15.999400
    reduced_to: 48
  - symbol: O  # 49
    coordinates: [  0.386586487315096,  0.650980388096156,  0.426670984960525 ]
    mass: 15.999400
    reduced_to: 49
  - symbol: O  # 50
    coordinates: [  0.884116932900407,  0.666545424224000,  0.418938826386096 ]
    mass: 15.999400
    reduced_to: 50
  - symbol: O  # 51
    coordinates: [  0.171760524827686,  0.227995230539294,  0.922177642674365 ]
    mass: 15.999400
    reduced_to: 51
  - symbol: O  # 52
    coordinates: [  0.662983209150743,  0.228027272858497,  0.917140742047781 ]
    mass: 15.999400
    reduced_to: 52
  - symbol: O  # 53
    coordinates: [  0.157753431288848,  0.108203082954692,  0.414022151099871 ]
    mass: 15.999400
    reduced_to: 53
  - symbol: O  # 54
    coordinates: [  0.671896746426017,  0.118726136130335,  0.425434727160960 ]
    mass: 15.999400
    reduced_to: 54
  - symbol: O  # 55
    coordinates: [  0.392606343850163,  0.107451685015866,  0.910839578893019 ]
    mass: 15.999400
    reduced_to: 55
  - symbol: O  # 56
    coordinates: [  0.889561745330535,  0.116102233110169,  0.921641852588347 ]
    mass: 15.999400
    reduced_to: 56
  - symbol: O  # 57
    coordinates: [  0.433946349868449,  0.220008575481698,  0.423027121345997 ]
    mass: 15.999400
    reduced_to: 57
  - symbol: O  # 58
    coordinates: [  0.942932362023657,  0.229186919681316,  0.420537516468543 ]
    mass: 15.999400
    reduced_to: 58
