# Tetrahedron method
       -2.9802037782        0.0000000000
       -2.8244856539        0.0000000000
       -2.6687675296        0.0000000000
       -2.5130494053        0.0000000000
       -2.3573312810        0.0000000000
       -2.2016131566        0.0000000000
       -2.0458950323        0.0000000000
       -1.8901769080        0.0000000000
       -1.7344587837        0.0000000000
       -1.5787406594        0.0000000000
       -1.4230225351        0.0000000000
       -1.2673044108        0.0000000000
       -1.1115862865        0.0000000000
       -0.9558681621        0.0000000000
       -0.8001500378        0.0000000000
       -0.6444319135        0.0000000000
       -0.4887137892        0.0000000000
       -0.3329956649        0.0000000000
       -0.1772775406        0.0000000000
       -0.0215594163        0.0000000000
        0.1341587080        0.0000000000
        0.2898768324        0.0000000000
        0.4455949567        0.0000000000
        0.6013130810        0.0000000000
        0.7570312053        0.0000000000
        0.9127493296        0.0000000000
        1.0684674539        0.0000000000
        1.2241855782        0.0000000000
        1.3799037025        0.0000000000
        1.5356218268        0.0000000000
        1.6913399512        0.0000000000
        1.8470580755        0.0000000000
        2.0027761998        0.0000000000
        2.1584943241        0.0000000000
        2.3142124484        0.0000000000
        2.4699305727        0.0000000000
        2.6256486970        0.0000000000
        2.7813668213        0.0000000000
        2.9370849457        0.0000000000
        3.0928030700        0.0000000000
        3.2485211943        0.0000000000
        3.4042393186        0.0000000000
        3.5599574429        0.0000000000
        3.7156755672        0.0000000000
        3.8713936915        0.0000000000
        4.0271118158        0.0000000000
        4.1828299402        0.0000000000
        4.3385480645        0.0000000000
        4.4942661888        0.0000000000
        4.6499843131        0.0000000000
        4.8057024374        0.0000000000
        4.9614205617        0.0000000000
        5.1171386860        0.0000000000
        5.2728568103        0.0000000000
        5.4285749347        0.0000000000
        5.5842930590        0.0000000000
        5.7400111833        0.0000000000
        5.8957293076        0.0000000000
        6.0514474319        0.0000000000
        6.2071655562        0.0000000000
        6.3628836805        0.0000000000
        6.5186018048        0.0000000000
        6.6743199291        0.0000000000
        6.8300380535        0.0000000000
        6.9857561778        0.0000000000
        7.1414743021        0.0000000000
        7.2971924264        0.0000000000
        7.4529105507        0.0000000000
        7.6086286750        0.0000000000
        7.7643467993        0.0000000000
        7.9200649236        0.0000000000
        8.0757830480        0.0000000000
        8.2315011723        0.0000000000
        8.3872192966        0.0000000000
        8.5429374209        0.0000000000
        8.6986555452        0.0000000000
        8.8543736695        0.0000000000
        9.0100917938        0.0000000000
        9.1658099181        0.0000000000
        9.3215280425        0.0000000000
        9.4772461668        0.0000000000
        9.6329642911        0.0000000000
        9.7886824154        0.0000000000
        9.9444005397        0.0000000000
       10.1001186640        0.0000000000
       10.2558367883        0.0000000000
       10.4115549126        0.0000000000
       10.5672730370        0.0000000000
       10.7229911613        0.0000000000
       10.8787092856        0.0000000000
       11.0344274099        0.0000000000
       11.1901455342        0.0000000000
       11.3458636585        0.0000000000
       11.5015817828        0.0000000000
       11.6572999071        0.0000000000
       11.8130180314        0.0000000000
       11.9687361558        0.0000000000
       12.1244542801        0.0000000000
       12.2801724044        0.0000000000
       12.4358905287        0.0000000000
       12.5916086530        0.0000000000
       12.7473267773        0.0000000000
       12.9030449016        0.0000000000
       13.0587630259        0.0000000000
       13.2144811503        0.0000000000
       13.3701992746        0.0000000000
       13.5259173989        0.0000000000
       13.6816355232        0.0000000000
       13.8373536475        0.0000000000
       13.9930717718        0.0000000000
       14.1487898961        0.0000000000
       14.3045080204        0.0000000000
       14.4602261448        0.0000000000
       14.6159442691        0.0000000000
       14.7716623934        0.0000000000
       14.9273805177        0.0000000000
       15.0830986420        0.0000000000
       15.2388167663        0.0000000000
       15.3945348906        0.0000000000
       15.5502530149        0.0000000000
       15.7059711393        0.0000000000
       15.8616892636        0.0000000000
       16.0174073879        0.0000000000
       16.1731255122        0.0000000000
       16.3288436365        0.0000000000
       16.4845617608        0.0000000000
       16.6402798851        0.0000000000
       16.7959980094        0.0000000000
       16.9517161338        0.0000000000
       17.1074342581        0.0000000000
       17.2631523824        0.0000000000
       17.4188705067        0.0000000000
       17.5745886310        0.0000000000
       17.7303067553        0.0000000000
       17.8860248796        0.0000000000
       18.0417430039        0.0000000000
       18.1974611282        0.0000000000
       18.3531792526        0.0000000000
       18.5088973769        0.0000000000
       18.6646155012        0.0000000000
       18.8203336255        0.0000000000
       18.9760517498        0.0000000000
       19.1317698741        0.0000000000
       19.2874879984        0.0000000000
       19.4432061227        0.0000000000
       19.5989242471        0.0000000000
       19.7546423714        0.0000000000
       19.9103604957        0.0000000000
       20.0660786200        0.0000000000
       20.2217967443        0.0000000000
       20.3775148686        0.0000000000
       20.5332329929        0.0000000000
       20.6889511172        0.0000000000
       20.8446692416        0.0000000000
       21.0003873659        0.0000000000
       21.1561054902        0.0000000000
       21.3118236145        0.0000000000
       21.4675417388        0.0000000000
       21.6232598631        0.0000000000
       21.7789779874        0.0000000000
       21.9346961117        0.0000000000
       22.0904142361        0.0000000000
       22.2461323604        0.0000000000
       22.4018504847        0.0000000000
       22.5575686090        0.0000000000
       22.7132867333        0.0000000000
       22.8690048576        0.0000000000
       23.0247229819        0.0000000000
       23.1804411062        0.0000000000
       23.3361592305        0.0000000000
       23.4918773549        0.0000000000
       23.6475954792        0.0000000000
       23.8033136035        0.0000000000
       23.9590317278        0.0000000000
       24.1147498521        0.0000000000
       24.2704679764        0.0000000000
       24.4261861007        0.0000000000
       24.5819042250        0.0000000000
       24.7376223494        0.0000000000
       24.8933404737        0.0000000000
       25.0490585980        0.0000000000
       25.2047767223        0.0000000000
       25.3604948466        0.0000000000
       25.5162129709        0.0000000000
       25.6719310952        0.0000000000
       25.8276492195        0.0000000000
       25.9833673439        0.0000000000
       26.1390854682        0.0000000000
       26.2948035925        0.0000000000
       26.4505217168        0.0000000000
       26.6062398411        0.0000000000
       26.7619579654        0.0000000000
       26.9176760897        0.0000000000
       27.0733942140        0.0000000000
       27.2291123384        0.0000000000
       27.3848304627        0.0000000000
       27.5405485870        0.0000000000
       27.6962667113        0.0000000000
       27.8519848356        0.0000000000
       28.0077029599        0.0000000000
       28.1634210842        0.0000000000
