       N       E                     dE             d eps       ncg     rms          rms(c)
DAV:   1     0.676627917473E+04    0.67663E+04   -0.16110E+05  2496   0.206E+03
DAV:   2     0.154085519767E+04   -0.52254E+04   -0.46618E+04  2272   0.594E+02
DAV:   3    -0.748537661407E+02   -0.16157E+04   -0.14024E+04  2488   0.291E+02
DAV:   4    -0.557676751175E+03   -0.48282E+03   -0.42936E+03  2784   0.137E+02
DAV:   5    -0.593804895308E+03   -0.36128E+02   -0.35826E+02  3808   0.540E+01    0.121E+02
DAV:   6    -0.439623777257E+03    0.15418E+03   -0.87854E+02  3120   0.810E+01    0.134E+02
DAV:   7    -0.457909295442E+03   -0.18286E+02   -0.12898E+02  3744   0.370E+01    0.902E+01
DAV:   8    -0.475285632970E+03   -0.17376E+02   -0.34458E+01  4016   0.179E+01    0.260E+01
DAV:   9    -0.486528366814E+03   -0.11243E+02   -0.14690E+01  3640   0.103E+01    0.938E+00
DAV:  10    -0.489315899576E+03   -0.27875E+01   -0.47109E+00  4224   0.524E+00    0.746E+00
DAV:  11    -0.491096457026E+03   -0.17806E+01   -0.18436E+00  3824   0.304E+00    0.425E+00
DAV:  12    -0.492119044083E+03   -0.10226E+01   -0.13807E+00  3496   0.221E+00    0.201E+00
DAV:  13    -0.492294102556E+03   -0.17506E+00   -0.44527E-01  4080   0.131E+00    0.133E+00
DAV:  14    -0.492310436757E+03   -0.16334E-01   -0.70570E-02  4200   0.667E-01    0.778E-01
DAV:  15    -0.492316701883E+03   -0.62651E-02   -0.17308E-02  4096   0.341E-01    0.413E-01
DAV:  16    -0.492318439481E+03   -0.17376E-02   -0.41971E-03  4136   0.196E-01    0.227E-01
DAV:  17    -0.492318571494E+03   -0.13201E-03   -0.10471E-03  4224   0.104E-01    0.111E-01
DAV:  18    -0.492318631345E+03   -0.59851E-04   -0.24895E-04  4096   0.523E-02    0.561E-02
DAV:  19    -0.492318641276E+03   -0.99310E-05   -0.34948E-05  2352   0.248E-02
   1 F= -.49231864E+03 E0= -.49231864E+03  d E =-.492319E+03  mag=     0.0074
       N       E                     dE             d eps       ncg     rms          rms(c)
DAV:   1    -0.487935754848E+03    0.43829E+01   -0.36076E+02  2272   0.491E+01    0.113E+01
DAV:   2    -0.492540979054E+03   -0.46052E+01   -0.49147E+01  3336   0.192E+01    0.803E+00
DAV:   3    -0.493009888255E+03   -0.46891E+00   -0.57428E+00  3856   0.553E+00    0.445E+00
DAV:   4    -0.493141635296E+03   -0.13175E+00   -0.16014E+00  4424   0.226E+00    0.390E+00
DAV:   5    -0.493147075648E+03   -0.54404E-02   -0.34204E-01  3776   0.102E+00    0.259E+00
DAV:   6    -0.493144744831E+03    0.23308E-02   -0.90528E-02  3368   0.760E-01    0.102E+00
DAV:   7    -0.493147115959E+03   -0.23711E-02   -0.30351E-02  4000   0.438E-01    0.628E-01
DAV:   8    -0.493147776363E+03   -0.66040E-03   -0.69398E-03  4432   0.188E-01    0.633E-01
DAV:   9    -0.493147864274E+03   -0.87911E-04   -0.15205E-03  4064   0.905E-02    0.415E-01
DAV:  10    -0.493147810244E+03    0.54030E-04   -0.91547E-04  3280   0.996E-02    0.121E-01
DAV:  11    -0.493147817757E+03   -0.75131E-05   -0.41621E-04  3696   0.581E-02    0.846E-02
DAV:  12    -0.493147811186E+03    0.65707E-05   -0.83732E-05  2608   0.264E-02
   2 F= -.49314781E+03 E0= -.49314781E+03  d E =-.829170E+00  mag=     0.0001
       N       E                     dE             d eps       ncg     rms          rms(c)
DAV:   1    -0.492661007902E+03    0.48681E+00   -0.42667E+01  2304   0.169E+01    0.297E+00
DAV:   2    -0.493121331614E+03   -0.46032E+00   -0.47890E+00  3472   0.597E+00    0.181E+00
DAV:   3    -0.493138699131E+03   -0.17368E-01   -0.25744E-01  4008   0.143E+00    0.121E+00
DAV:   4    -0.493139539321E+03   -0.84019E-03   -0.48027E-02  4240   0.568E-01    0.110E+00
DAV:   5    -0.493138493726E+03    0.10456E-02   -0.10277E-02  3592   0.268E-01    0.622E-01
DAV:   6    -0.493137858553E+03    0.63517E-03   -0.42602E-03  3128   0.226E-01    0.181E-01
DAV:   7    -0.493137991696E+03   -0.13314E-03   -0.18323E-03  3752   0.128E-01    0.180E-01
DAV:   8    -0.493138016227E+03   -0.24531E-04   -0.28269E-04  4336   0.480E-02    0.144E-01
DAV:   9    -0.493137994874E+03    0.21353E-04   -0.93433E-05  2792   0.361E-02    0.834E-02
DAV:  10    -0.493137994046E+03    0.82859E-06   -0.42985E-05  2520   0.219E-02
   3 F= -.49313799E+03 E0= -.49313799E+03  d E =-.819353E+00  mag=     0.0000
       N       E                     dE             d eps       ncg     rms          rms(c)
DAV:   1    -0.493037426873E+03    0.10057E+00   -0.12889E+01  2288   0.960E+00    0.159E+00
DAV:   2    -0.493166274052E+03   -0.12885E+00   -0.13434E+00  3488   0.338E+00    0.104E+00
DAV:   3    -0.493169930779E+03   -0.36567E-02   -0.61973E-02  4008   0.762E-01    0.649E-01
DAV:   4    -0.493169950338E+03   -0.19559E-04   -0.10301E-02  4208   0.293E-01    0.587E-01
DAV:   5    -0.493169608652E+03    0.34169E-03   -0.24471E-03  3632   0.141E-01    0.318E-01
DAV:   6    -0.493169554688E+03    0.53964E-04   -0.10632E-03  3568   0.106E-01    0.114E-01
DAV:   7    -0.493169573678E+03   -0.18990E-04   -0.41217E-04  3720   0.644E-02    0.110E-01
DAV:   8    -0.493169579285E+03   -0.56072E-05   -0.63327E-05  3104   0.237E-02
   4 F= -.49316958E+03 E0= -.49316958E+03  d E =-.850938E+00  mag=     0.0000
       N       E                     dE             d eps       ncg     rms          rms(c)
DAV:   1    -0.492269807786E+03    0.89977E+00   -0.10088E+02  2272   0.270E+01    0.495E+00
DAV:   2    -0.493277870268E+03   -0.10081E+01   -0.11271E+01  3632   0.101E+01    0.373E+00
DAV:   3    -0.493360498549E+03   -0.82628E-01   -0.11257E+00  3816   0.283E+00    0.187E+00
DAV:   4    -0.493375295655E+03   -0.14797E-01   -0.26220E-01  4352   0.123E+00    0.178E+00
DAV:   5    -0.493374360019E+03    0.93564E-03   -0.58905E-02  3800   0.481E-01    0.117E+00
DAV:   6    -0.493371033566E+03    0.33265E-02   -0.16302E-02  3320   0.445E-01    0.489E-01
DAV:   7    -0.493371534407E+03   -0.50084E-03   -0.80820E-03  3736   0.256E-01    0.278E-01
DAV:   8    -0.493371664378E+03   -0.12997E-03   -0.15490E-03  4496   0.116E-01    0.239E-01
DAV:   9    -0.493371666649E+03   -0.22714E-05   -0.25005E-04  4160   0.453E-02    0.188E-01
DAV:  10    -0.493371650742E+03    0.15907E-04   -0.14349E-04  3408   0.428E-02    0.952E-02
DAV:  11    -0.493371647897E+03    0.28453E-05   -0.80042E-05  2952   0.327E-02
   5 F= -.49337165E+03 E0= -.49337165E+03  d E =-.202069E+00  mag=     0.0000
       N       E                     dE             d eps       ncg     rms          rms(c)
DAV:   1    -0.493211059832E+03    0.16059E+00   -0.15062E+01  2332   0.104E+01    0.182E+00
DAV:   2    -0.493345912133E+03   -0.13485E+00   -0.14817E+00  3584   0.388E+00    0.136E+00
DAV:   3    -0.493350603103E+03   -0.46910E-02   -0.90441E-02  4024   0.108E+00    0.690E-01
DAV:   4    -0.493350276555E+03    0.32655E-03   -0.15477E-02  4080   0.437E-01    0.660E-01
DAV:   5    -0.493349833748E+03    0.44281E-03   -0.35973E-03  3968   0.180E-01    0.430E-01
DAV:   6    -0.493349344813E+03    0.48893E-03   -0.16761E-03  3280   0.185E-01    0.155E-01
DAV:   7    -0.493349435115E+03   -0.90302E-04   -0.12772E-03  3712   0.108E-01    0.116E-01
DAV:   8    -0.493349450775E+03   -0.15660E-04   -0.20862E-04  4200   0.427E-02    0.986E-02
DAV:   9    -0.493349442938E+03    0.78368E-05   -0.31660E-05  2144   0.246E-02
   6 F= -.49334944E+03 E0= -.49334944E+03  d E =-.179864E+00  mag=    -0.0000
       N       E                     dE             d eps       ncg     rms          rms(c)
DAV:   1    -0.493306854684E+03    0.42596E-01   -0.72336E+00  2280   0.720E+00    0.124E+00
DAV:   2    -0.493370224030E+03   -0.63369E-01   -0.69769E-01  3632   0.271E+00    0.942E-01
DAV:   3    -0.493372208646E+03   -0.19846E-02   -0.40911E-02  4000   0.724E-01    0.478E-01
DAV:   4    -0.493372035797E+03    0.17285E-03   -0.67615E-03  4072   0.298E-01    0.457E-01
DAV:   5    -0.493371798709E+03    0.23709E-03   -0.15943E-03  3920   0.119E-01    0.296E-01
DAV:   6    -0.493371589119E+03    0.20959E-03   -0.76195E-04  3408   0.118E-01    0.108E-01
DAV:   7    -0.493371622945E+03   -0.33826E-04   -0.48071E-04  3496   0.686E-02    0.790E-02
DAV:   8    -0.493371628031E+03   -0.50857E-05   -0.73409E-05  3320   0.291E-02
   7 F= -.49337163E+03 E0= -.49337163E+03  d E =-.202049E+00  mag=    -0.0000
       N       E                     dE             d eps       ncg     rms          rms(c)
DAV:   1    -0.492902234469E+03    0.46939E+00   -0.58976E+01  2272   0.200E+01    0.320E+00
DAV:   2    -0.493428436003E+03   -0.52620E+00   -0.56615E+00  3752   0.733E+00    0.205E+00
DAV:   3    -0.493470011154E+03   -0.41575E-01   -0.50647E-01  4368   0.187E+00    0.126E+00
DAV:   4    -0.493476167776E+03   -0.61566E-02   -0.11661E-01  4136   0.785E-01    0.114E+00
DAV:   5    -0.493477121195E+03   -0.95342E-03   -0.29150E-02  3872   0.361E-01    0.743E-01
DAV:   6    -0.493475586194E+03    0.15350E-02   -0.85988E-03  3360   0.288E-01    0.294E-01
DAV:   7    -0.493475767300E+03   -0.18111E-03   -0.32988E-03  3864   0.173E-01    0.176E-01
DAV:   8    -0.493475861742E+03   -0.94442E-04   -0.99795E-04  4400   0.846E-02    0.140E-01
DAV:   9    -0.493475849307E+03    0.12435E-04   -0.21729E-04  4000   0.462E-02    0.909E-02
DAV:  10    -0.493475844199E+03    0.51076E-05   -0.74915E-05  2672   0.297E-02
   8 F= -.49347584E+03 E0= -.49347584E+03  d E =-.104216E+00  mag=     0.0000
       N       E                     dE             d eps       ncg     rms          rms(c)
DAV:   1    -0.493470976674E+03    0.48726E-02   -0.74757E-01  2312   0.223E+00    0.330E-01
DAV:   2    -0.493477261457E+03   -0.62848E-02   -0.65980E-02  3664   0.841E-01    0.216E-01
DAV:   3    -0.493477496267E+03   -0.23481E-03   -0.34834E-03  4304   0.215E-01    0.142E-01
DAV:   4    -0.493477465749E+03    0.30517E-04   -0.39085E-04  4088   0.762E-02    0.131E-01
DAV:   5    -0.493477455394E+03    0.10355E-04   -0.92933E-05  3336   0.350E-02    0.854E-02
DAV:   6    -0.493477437881E+03    0.17513E-04   -0.65484E-05  2648   0.334E-02    0.278E-02
DAV:   7    -0.493477439454E+03   -0.15735E-05   -0.20516E-05  1816   0.211E-02
   9 F= -.49347744E+03 E0= -.49347744E+03  d E =-.105811E+00  mag=     0.0000
       N       E                     dE             d eps       ncg     rms          rms(c)
DAV:   1    -0.493222815901E+03    0.25462E+00   -0.43853E+01  2272   0.162E+01    0.269E+00
DAV:   2    -0.493529329342E+03   -0.30651E+00   -0.32495E+00  3664   0.571E+00    0.156E+00
DAV:   3    -0.493551168723E+03   -0.21839E-01   -0.27620E-01  4280   0.143E+00    0.110E+00
DAV:   4    -0.493553011630E+03   -0.18429E-02   -0.55378E-02  4184   0.549E-01    0.866E-01
DAV:   5    -0.493552754935E+03    0.25670E-03   -0.14331E-02  3992   0.264E-01    0.532E-01
DAV:   6    -0.493551930452E+03    0.82448E-03   -0.46931E-03  3320   0.212E-01    0.201E-01
DAV:   7    -0.493552125939E+03   -0.19549E-03   -0.23075E-03  4056   0.130E-01    0.136E-01
DAV:   8    -0.493552172916E+03   -0.46977E-04   -0.47887E-04  4224   0.591E-02    0.118E-01
DAV:   9    -0.493552158345E+03    0.14571E-04   -0.15884E-04  3808   0.418E-02    0.660E-02
DAV:  10    -0.493552158639E+03   -0.29411E-06   -0.35379E-05  1912   0.221E-02
  10 F= -.49355216E+03 E0= -.49355216E+03  d E =-.747192E-01  mag=    -0.0000
       N       E                     dE             d eps       ncg     rms          rms(c)
DAV:   1    -0.493509475031E+03    0.42683E-01   -0.76027E+00  2292   0.671E+00    0.107E+00
DAV:   2    -0.493558044644E+03   -0.48570E-01   -0.50864E-01  3680   0.237E+00    0.641E-01
DAV:   3    -0.493560049881E+03   -0.20052E-02   -0.30020E-02  4316   0.570E-01    0.454E-01
DAV:   4    -0.493559819391E+03    0.23049E-03   -0.42416E-03  4096   0.214E-01    0.363E-01
DAV:   5    -0.493559696458E+03    0.12293E-03   -0.12586E-03  3984   0.103E-01    0.217E-01
DAV:   6    -0.493559574223E+03    0.12224E-03   -0.60100E-04  3304   0.887E-02    0.805E-02
DAV:   7    -0.493559604817E+03   -0.30595E-04   -0.33686E-04  3976   0.524E-02    0.591E-02
DAV:   8    -0.493559609671E+03   -0.48544E-05   -0.53022E-05  2624   0.241E-02
  11 F= -.49355961E+03 E0= -.49355961E+03  d E =-.821702E-01  mag=     0.0000
       N       E                     dE             d eps       ncg     rms          rms(c)
DAV:   1    -0.493190052486E+03    0.36955E+00   -0.46550E+01  2272   0.187E+01    0.344E+00
DAV:   2    -0.493587095517E+03   -0.39704E+00   -0.42555E+00  3600   0.671E+00    0.222E+00
DAV:   3    -0.493605696358E+03   -0.18601E-01   -0.29965E-01  4048   0.180E+00    0.130E+00
DAV:   4    -0.493606186799E+03   -0.49044E-03   -0.54231E-02  4048   0.712E-01    0.116E+00
DAV:   5    -0.493605069574E+03    0.11172E-02   -0.13859E-02  4072   0.318E-01    0.742E-01
DAV:   6    -0.493603576532E+03    0.14930E-02   -0.57646E-03  3224   0.283E-01    0.259E-01
DAV:   7    -0.493603821385E+03   -0.24485E-03   -0.30480E-03  3696   0.161E-01    0.187E-01
DAV:   8    -0.493603866992E+03   -0.45606E-04   -0.57348E-04  4368   0.729E-02    0.161E-01
DAV:   9    -0.493603843879E+03    0.23113E-04   -0.11821E-04  3456   0.390E-02    0.108E-01
DAV:  10    -0.493603835387E+03    0.84917E-05   -0.64757E-05  2768   0.284E-02
  12 F= -.49360384E+03 E0= -.49360384E+03  d E =-.442257E-01  mag=    -0.0000
       N       E                     dE             d eps       ncg     rms          rms(c)
DAV:   1    -0.493520985174E+03    0.82859E-01   -0.90554E+00  2312   0.818E+00    0.146E+00
DAV:   2    -0.493595782563E+03   -0.74797E-01   -0.79575E-01  3624   0.292E+00    0.977E-01
DAV:   3    -0.493598025976E+03   -0.22434E-02   -0.44397E-02  3984   0.778E-01    0.568E-01
DAV:   4    -0.493597723976E+03    0.30200E-03   -0.65454E-03  3952   0.301E-01    0.507E-01
DAV:   5    -0.493597358843E+03    0.36513E-03   -0.17166E-03  3880   0.142E-01    0.301E-01
DAV:   6    -0.493597139056E+03    0.21979E-03   -0.95925E-04  3384   0.121E-01    0.108E-01
DAV:   7    -0.493597185003E+03   -0.45947E-04   -0.54162E-04  3728   0.705E-02    0.973E-02
DAV:   8    -0.493597192047E+03   -0.70444E-05   -0.91251E-05  3648   0.294E-02
  13 F= -.49359719E+03 E0= -.49359719E+03  d E =-.375824E-01  mag=     0.0000
       N       E                     dE             d eps       ncg     rms          rms(c)
DAV:   1    -0.493532533876E+03    0.64651E-01   -0.86450E+00  2284   0.803E+00    0.141E+00
DAV:   2    -0.493602437678E+03   -0.69904E-01   -0.74608E-01  3584   0.289E+00    0.962E-01
DAV:   3    -0.493604736461E+03   -0.22988E-02   -0.44190E-02  4040   0.758E-01    0.564E-01
DAV:   4    -0.493604449891E+03    0.28657E-03   -0.62860E-03  3968   0.294E-01    0.506E-01
DAV:   5    -0.493604109514E+03    0.34038E-03   -0.17255E-03  4048   0.134E-01    0.311E-01
DAV:   6    -0.493603869844E+03    0.23967E-03   -0.94015E-04  3160   0.120E-01    0.110E-01
DAV:   7    -0.493603912273E+03   -0.42429E-04   -0.52320E-04  3696   0.693E-02    0.919E-02
DAV:   8    -0.493603916983E+03   -0.47103E-05   -0.75315E-05  3272   0.297E-02
  14 F= -.49360392E+03 E0= -.49360392E+03  d E =-.443073E-01  mag=    -0.0000
       N       E                     dE             d eps       ncg     rms          rms(c)
DAV:   1    -0.493335703194E+03    0.26821E+00   -0.28001E+01  2272   0.157E+01    0.266E+00
DAV:   2    -0.493634028681E+03   -0.29833E+00   -0.31095E+00  3592   0.572E+00    0.155E+00
DAV:   3    -0.493642812283E+03   -0.87836E-02   -0.15491E-01  4184   0.141E+00    0.105E+00
DAV:   4    -0.493641600468E+03    0.12118E-02   -0.20720E-02  4176   0.488E-01    0.849E-01
DAV:   5    -0.493640796089E+03    0.80438E-03   -0.52745E-03  4096   0.224E-01    0.503E-01
DAV:   6    -0.493640179282E+03    0.61681E-03   -0.24111E-03  3208   0.196E-01    0.170E-01
DAV:   7    -0.493640284058E+03   -0.10478E-03   -0.13429E-03  3736   0.117E-01    0.126E-01
DAV:   8    -0.493640304715E+03   -0.20658E-04   -0.27709E-04  4448   0.518E-02    0.111E-01
DAV:   9    -0.493640289027E+03    0.15688E-04   -0.54864E-05  2568   0.289E-02    0.648E-02
DAV:  10    -0.493640286952E+03    0.20753E-05   -0.20034E-05  1736   0.202E-02
