       N       E                     dE             d eps       ncg     rms          rms(c)
DAV:   1     0.676730488750E+04    0.67673E+04   -0.16075E+05  2512   0.206E+03
DAV:   2     0.154995729788E+04   -0.52173E+04   -0.46542E+04  2272   0.595E+02
DAV:   3    -0.852509166178E+02   -0.16352E+04   -0.14237E+04  2504   0.290E+02
DAV:   4    -0.558899081245E+03   -0.47365E+03   -0.42709E+03  2768   0.137E+02
DAV:   5    -0.594453478457E+03   -0.35554E+02   -0.35250E+02  3840   0.539E+01    0.121E+02
DAV:   6    -0.440839249700E+03    0.15361E+03   -0.88053E+02  3152   0.808E+01    0.134E+02
DAV:   7    -0.458706227689E+03   -0.17867E+02   -0.12581E+02  3664   0.368E+01    0.900E+01
DAV:   8    -0.476616862230E+03   -0.17911E+02   -0.33694E+01  3928   0.179E+01    0.250E+01
DAV:   9    -0.487477799142E+03   -0.10861E+02   -0.14274E+01  3712   0.102E+01    0.894E+00
DAV:  10    -0.490184584810E+03   -0.27068E+01   -0.46593E+00  4216   0.515E+00    0.733E+00
DAV:  11    -0.491914454726E+03   -0.17299E+01   -0.18137E+00  3840   0.309E+00    0.416E+00
DAV:  12    -0.492942982056E+03   -0.10285E+01   -0.13854E+00  3528   0.225E+00    0.197E+00
DAV:  13    -0.493110161135E+03   -0.16718E+00   -0.45117E-01  4088   0.132E+00    0.132E+00
DAV:  14    -0.493125837768E+03   -0.15677E-01   -0.63024E-02  4144   0.655E-01    0.779E-01
DAV:  15    -0.493132167345E+03   -0.63296E-02   -0.17836E-02  4096   0.337E-01    0.422E-01
DAV:  16    -0.493134110260E+03   -0.19429E-02   -0.43373E-03  4016   0.195E-01    0.246E-01
DAV:  17    -0.493134258225E+03   -0.14796E-03   -0.11199E-03  4336   0.103E-01    0.123E-01
DAV:  18    -0.493134304281E+03   -0.46057E-04   -0.20988E-04  4040   0.510E-02    0.559E-02
DAV:  19    -0.493134312827E+03   -0.85463E-05   -0.36819E-05  2392   0.268E-02
   1 F= -.49313431E+03 E0= -.49313431E+03  d E =-.493134E+03  mag=     0.0083
       N       E                     dE             d eps       ncg     rms          rms(c)
DAV:   1    -0.491725622045E+03    0.14087E+01   -0.93758E+01  2272   0.287E+01    0.504E+00
DAV:   2    -0.493269472914E+03   -0.15439E+01   -0.16168E+01  3304   0.113E+01    0.341E+00
DAV:   3    -0.493377042093E+03   -0.10757E+00   -0.13431E+00  3944   0.312E+00    0.220E+00
DAV:   4    -0.493385763871E+03   -0.87218E-02   -0.19815E-01  4280   0.114E+00    0.198E+00
DAV:   5    -0.493383290413E+03    0.24735E-02   -0.33168E-02  3552   0.469E-01    0.114E+00
DAV:   6    -0.493382146250E+03    0.11442E-02   -0.12324E-02  3408   0.379E-01    0.403E-01
DAV:   7    -0.493382560541E+03   -0.41429E-03   -0.61975E-03  4112   0.227E-01    0.373E-01
DAV:   8    -0.493382651669E+03   -0.91127E-04   -0.92265E-04  4192   0.797E-02    0.304E-01
DAV:   9    -0.493382617191E+03    0.34477E-04   -0.33154E-04  3608   0.680E-02    0.123E-01
DAV:  10    -0.493382625298E+03   -0.81067E-05   -0.13248E-04  3440   0.342E-02    0.651E-02
DAV:  11    -0.493382625446E+03   -0.14764E-06   -0.17818E-05  1968   0.181E-02
   2 F= -.49338263E+03 E0= -.49338263E+03  d E =-.248313E+00  mag=     0.0001
       N       E                     dE             d eps       ncg     rms          rms(c)
DAV:   1    -0.493370420789E+03    0.12205E-01   -0.85311E-01  2368   0.274E+00    0.424E-01
DAV:   2    -0.493384302888E+03   -0.13882E-01   -0.14438E-01  3456   0.102E+00    0.300E-01
DAV:   3    -0.493384545878E+03   -0.24299E-03   -0.47527E-03  4120   0.232E-01    0.199E-01
DAV:   4    -0.493384498498E+03    0.47380E-04   -0.56157E-04  3960   0.859E-02    0.186E-01
DAV:   5    -0.493384470266E+03    0.28232E-04   -0.95547E-05  3312   0.390E-02    0.119E-01
DAV:   6    -0.493384444298E+03    0.25967E-04   -0.93232E-05  2776   0.394E-02    0.321E-02
DAV:   7    -0.493384447086E+03   -0.27874E-05   -0.38295E-05  2400   0.231E-02
   3 F= -.49338445E+03 E0= -.49338445E+03  d E =-.250134E+00  mag=     0.0000
       N       E                     dE             d eps       ncg     rms          rms(c)
DAV:   1    -0.493380036266E+03    0.44080E-02   -0.24866E-01  2352   0.150E+00    0.222E-01
DAV:   2    -0.493384025471E+03   -0.39892E-02   -0.41571E-02  3400   0.550E-01    0.163E-01
DAV:   3    -0.493384108576E+03   -0.83105E-04   -0.15553E-03  4032   0.126E-01    0.110E-01
DAV:   4    -0.493384100021E+03    0.85550E-05   -0.21035E-04  3648   0.470E-02    0.102E-01
DAV:   5    -0.493384089155E+03    0.10867E-04   -0.24270E-05  2248   0.230E-02    0.645E-02
DAV:   6    -0.493384082388E+03    0.67671E-05   -0.36838E-05  2064   0.254E-02
   4 F= -.49338408E+03 E0= -.49338408E+03  d E =-.249770E+00  mag=     0.0000
       N       E                     dE             d eps       ncg     rms          rms(c)
DAV:   1    -0.493029708417E+03    0.35438E+00   -0.42196E+01  2272   0.180E+01    0.350E+00
DAV:   2    -0.493450129925E+03   -0.42042E+00   -0.47211E+00  3632   0.698E+00    0.278E+00
DAV:   3    -0.493468689003E+03   -0.18559E-01   -0.34944E-01  3776   0.203E+00    0.136E+00
DAV:   4    -0.493468766423E+03   -0.77420E-04   -0.66413E-02  4128   0.828E-01    0.134E+00
DAV:   5    -0.493467224791E+03    0.15416E-02   -0.15430E-02  3944   0.339E-01    0.844E-01
DAV:   6    -0.493465723963E+03    0.15008E-02   -0.65162E-03  3248   0.321E-01    0.301E-01
DAV:   7    -0.493465952058E+03   -0.22809E-03   -0.37390E-03  3640   0.189E-01    0.217E-01
DAV:   8    -0.493466012887E+03   -0.60829E-04   -0.76465E-04  4344   0.903E-02    0.154E-01
DAV:   9    -0.493465991616E+03    0.21271E-04   -0.18007E-04  3872   0.477E-02    0.102E-01
DAV:  10    -0.493465986253E+03    0.53627E-05   -0.58533E-05  2792   0.303E-02
   5 F= -.49346599E+03 E0= -.49346599E+03  d E =-.819039E-01  mag=     0.0000
       N       E                     dE             d eps       ncg     rms          rms(c)
DAV:   1    -0.493466095458E+03   -0.10384E-03   -0.17967E-01  2384   0.119E+00    0.231E-01
DAV:   2    -0.493467880783E+03   -0.17853E-02   -0.19962E-02  3616   0.472E-01    0.185E-01
DAV:   3    -0.493467921322E+03   -0.40539E-04   -0.11025E-03  3688   0.133E-01    0.894E-02
DAV:   4    -0.493467908574E+03    0.12748E-04   -0.16746E-04  3832   0.509E-02    0.848E-02
DAV:   5    -0.493467897256E+03    0.11318E-04   -0.28096E-05  2344   0.234E-02    0.503E-02
DAV:   6    -0.493467891941E+03    0.53144E-05   -0.38804E-05  2264   0.259E-02
   6 F= -.49346789E+03 E0= -.49346789E+03  d E =-.838096E-01  mag=     0.0000
       N       E                     dE             d eps       ncg     rms          rms(c)
DAV:   1    -0.493465881859E+03    0.20154E-02   -0.86343E-02  2368   0.823E-01    0.147E-01
DAV:   2    -0.493466686468E+03   -0.80461E-03   -0.89808E-03  3616   0.317E-01    0.124E-01
DAV:   3    -0.493466702869E+03   -0.16401E-04   -0.50623E-04  3704   0.907E-02    0.643E-02
DAV:   4    -0.493466695094E+03    0.77756E-05   -0.62896E-05  3056   0.335E-02
   7 F= -.49346670E+03 E0= -.49346670E+03  d E =-.826127E-01  mag=     0.0000
       N       E                     dE             d eps       ncg     rms          rms(c)
DAV:   1    -0.493248181177E+03    0.21852E+00   -0.28433E+01  2272   0.143E+01    0.233E+00
DAV:   2    -0.493507720450E+03   -0.25954E+00   -0.27882E+00  3656   0.525E+00    0.172E+00
DAV:   3    -0.493521519637E+03   -0.13799E-01   -0.19378E-01  4120   0.142E+00    0.956E-01
DAV:   4    -0.493522327852E+03   -0.80821E-03   -0.37094E-02  4208   0.611E-01    0.930E-01
DAV:   5    -0.493522064462E+03    0.26339E-03   -0.86120E-03  3920   0.260E-01    0.605E-01
DAV:   6    -0.493521381540E+03    0.68292E-03   -0.34333E-03  3232   0.230E-01    0.202E-01
DAV:   7    -0.493521518260E+03   -0.13672E-03   -0.18180E-03  3936   0.138E-01    0.138E-01
DAV:   8    -0.493521551499E+03   -0.33238E-04   -0.38625E-04  4232   0.613E-02    0.111E-01
DAV:   9    -0.493521532513E+03    0.18986E-04   -0.10565E-04  3368   0.383E-02    0.618E-02
DAV:  10    -0.493521530522E+03    0.19915E-05   -0.33728E-05  2128   0.228E-02
   8 F= -.49352153E+03 E0= -.49352153E+03  d E =-.548354E-01  mag=     0.0000
       N       E                     dE             d eps       ncg     rms          rms(c)
DAV:   1    -0.493517955928E+03    0.35766E-02   -0.35242E-01  2352   0.158E+00    0.250E-01
DAV:   2    -0.493521077819E+03   -0.31219E-02   -0.33169E-02  3640   0.600E-01    0.185E-01
DAV:   3    -0.493521183768E+03   -0.10595E-03   -0.17704E-03  4136   0.158E-01    0.107E-01
DAV:   4    -0.493521172093E+03    0.11674E-04   -0.24142E-04  3904   0.632E-02    0.107E-01
DAV:   5    -0.493521164534E+03    0.75593E-05   -0.45744E-05  2760   0.280E-02
   9 F= -.49352116E+03 E0= -.49352116E+03  d E =-.544694E-01  mag=    -0.0000
       N       E                     dE             d eps       ncg     rms          rms(c)
DAV:   1    -0.493386933116E+03    0.13424E+00   -0.23640E+01  2272   0.124E+01    0.214E+00
DAV:   2    -0.493559332206E+03   -0.17240E+00   -0.18579E+00  3648   0.447E+00    0.152E+00
DAV:   3    -0.493568445252E+03   -0.91130E-02   -0.13956E-01  4040   0.123E+00    0.873E-01
DAV:   4    -0.493568608458E+03   -0.16321E-03   -0.23526E-02  4016   0.487E-01    0.790E-01
DAV:   5    -0.493568000091E+03    0.60837E-03   -0.63141E-03  3984   0.225E-01    0.480E-01
DAV:   6    -0.493567579936E+03    0.42016E-03   -0.25955E-03  3408   0.190E-01    0.178E-01
DAV:   7    -0.493567679483E+03   -0.99547E-04   -0.13025E-03  3792   0.118E-01    0.137E-01
DAV:   8    -0.493567704008E+03   -0.24525E-04   -0.28339E-04  4376   0.491E-02    0.113E-01
DAV:   9    -0.493567685182E+03    0.18825E-04   -0.77735E-05  2864   0.326E-02    0.684E-02
DAV:  10    -0.493567682984E+03    0.21988E-05   -0.21865E-05  1760   0.212E-02
  10 F= -.49356768E+03 E0= -.49356768E+03  d E =-.465184E-01  mag=    -0.0000
       N       E                     dE             d eps       ncg     rms          rms(c)
DAV:   1    -0.493542795726E+03    0.24889E-01   -0.40348E+00  2320   0.512E+00    0.865E-01
DAV:   2    -0.493571061590E+03   -0.28266E-01   -0.30280E-01  3664   0.181E+00    0.628E-01
DAV:   3    -0.493572121583E+03   -0.10600E-02   -0.18710E-02  3928   0.491E-01    0.364E-01
DAV:   4    -0.493571999900E+03    0.12168E-03   -0.26087E-03  4040   0.187E-01    0.334E-01
DAV:   5    -0.493571867058E+03    0.13284E-03   -0.75236E-04  3976   0.881E-02    0.202E-01
DAV:   6    -0.493571797709E+03    0.69349E-04   -0.40315E-04  3400   0.780E-02    0.733E-02
DAV:   7    -0.493571812837E+03   -0.15128E-04   -0.21905E-04  3744   0.492E-02    0.582E-02
DAV:   8    -0.493571813887E+03   -0.10496E-05   -0.18772E-05  1760   0.199E-02
  11 F= -.49357181E+03 E0= -.49357181E+03  d E =-.506494E-01  mag=    -0.0000
       N       E                     dE             d eps       ncg     rms          rms(c)
DAV:   1    -0.493383087542E+03    0.18873E+00   -0.27787E+01  2276   0.140E+01    0.244E+00
DAV:   2    -0.493594968294E+03   -0.21188E+00   -0.22568E+00  3632   0.496E+00    0.155E+00
DAV:   3    -0.493605572932E+03   -0.10605E-01   -0.15695E-01  4112   0.131E+00    0.968E-01
DAV:   4    -0.493605567026E+03    0.59056E-05   -0.26314E-02  4064   0.517E-01    0.847E-01
DAV:   5    -0.493605163384E+03    0.40364E-03   -0.63749E-03  4208   0.225E-01    0.563E-01
DAV:   6    -0.493604272008E+03    0.89138E-03   -0.29008E-03  3112   0.215E-01    0.197E-01
DAV:   7    -0.493604390156E+03   -0.11815E-03   -0.15441E-03  3680   0.125E-01    0.107E-01
DAV:   8    -0.493604417828E+03   -0.27673E-04   -0.30573E-04  4344   0.534E-02    0.998E-02
DAV:   9    -0.493604407445E+03    0.10384E-04   -0.39532E-05  2320   0.255E-02    0.727E-02
DAV:  10    -0.493604402633E+03    0.48118E-05   -0.50267E-05  2352   0.246E-02
  12 F= -.49360440E+03 E0= -.49360440E+03  d E =-.325887E-01  mag=     0.0000
       N       E                     dE             d eps       ncg     rms          rms(c)
DAV:   1    -0.493604376414E+03    0.31030E-04   -0.77488E-04  2640   0.778E-02    0.255E-02
DAV:   2    -0.493604383228E+03   -0.68140E-05   -0.77534E-05  2440   0.277E-02
  13 F= -.49360438E+03 E0= -.49360438E+03  d E =-.325693E-01  mag=     0.0000
       N       E                     dE             d eps       ncg     rms          rms(c)
DAV:   1    -0.493604397629E+03   -0.21215E-04   -0.67838E-04  2648   0.731E-02    0.154E-02
DAV:   2    -0.493604403973E+03   -0.63441E-05   -0.66722E-05  2320   0.240E-02
  14 F= -.49360440E+03 E0= -.49360440E+03  d E =-.325901E-01  mag=     0.0000
