# Converted from POSCAR to lammps format

464 atoms

4 atom types

0.000000   21.896320   xlo xhi
0.000000    9.481384   ylo yhi
0.000000   26.818001   zlo zhi

 -5.474081    0.000000    0.000000   xy xz yz

Masses

1 138.90547  # La
2 6.9410000  # Li
3 47.867000  # Ti
4 15.999400  # O

Atoms

1	1	1.8	2.74241400	1.60947600	7.94600500
2	1	1.8	2.74241400	1.60947600	21.35500500
3	1	1.8	0.00537300	6.35016900	7.94600500
4	1	1.8	0.00537300	6.35016900	21.35500500
5	1	1.8	13.69057500	1.60947600	7.94600500
6	1	1.8	13.69057500	1.60947600	21.35500500
7	1	1.8	10.95353300	6.35016900	7.94600500
8	1	1.8	10.95353300	6.35016900	21.35500500
9	1	1.8	8.18406100	1.60633700	7.89823800
10	1	1.8	8.18406100	1.60633700	21.30723800
11	1	1.8	5.44702100	6.34702900	7.89823800
12	1	1.8	5.44702100	6.34702900	21.30723800
13	1	1.8	19.13221900	1.60633700	7.89823800
14	1	1.8	19.13221900	1.60633700	21.30723800
15	1	1.8	16.39517800	6.34702900	7.89823800
16	1	1.8	16.39517800	6.34702900	21.30723800
17	1	1.8	0.05141700	3.24460900	12.29377300
18	1	1.8	0.05141700	3.24460900	25.70277400
19	1	1.8	-2.68562400	7.98530100	12.29377300
20	1	1.8	-2.68562400	7.98530100	25.70277400
21	1	1.8	10.99957700	3.24460900	12.29377300
22	1	1.8	10.99957700	3.24460900	25.70277400
23	1	1.8	8.26253600	7.98530100	12.29377300
24	1	1.8	8.26253600	7.98530100	25.70277400
25	1	1.8	5.49981900	3.22180100	12.36052300
26	1	1.8	5.49981900	3.22180100	25.76952400
27	1	1.8	2.76277900	7.96249300	12.36052300
28	1	1.8	2.76277900	7.96249300	25.76952400
29	1	1.8	16.44797900	3.22180100	12.36052300
30	1	1.8	16.44797900	3.22180100	25.76952400
31	1	1.8	13.71093700	7.96249300	12.36052300
32	1	1.8	13.71093700	7.96249300	25.76952400
33	1	1.8	0.00841000	3.19798100	5.57478600
34	1	1.8	0.00841000	3.19798100	18.98378600
35	1	1.8	-2.72863000	7.93867300	5.57478600
36	1	1.8	-2.72863000	7.93867300	18.98378600
37	1	1.8	10.95657100	3.19798100	5.57478600
38	1	1.8	10.95657100	3.19798100	18.98378600
39	1	1.8	8.21953000	7.93867300	5.57478600
40	1	1.8	8.21953000	7.93867300	18.98378600
41	1	1.8	5.43515300	3.16321600	5.58176000
42	1	1.8	5.43515300	3.16321600	18.99076100
43	1	1.8	2.69811200	7.90390800	5.58176000
44	1	1.8	2.69811200	7.90390800	18.99076100
45	1	1.8	16.38331200	3.16321600	5.58176000
46	1	1.8	16.38331200	3.16321600	18.99076100
47	1	1.8	13.64627200	7.90390800	5.58176000
48	1	1.8	13.64627200	7.90390800	18.99076100
49	1	1.8	0.05043800	0.03589900	3.28313400
50	1	1.8	0.05043800	0.03589900	16.69213500
51	1	1.8	-2.68660300	4.77659100	3.28313400
52	1	1.8	-2.68660300	4.77659100	16.69213500
53	1	1.8	10.99859800	0.03589900	3.28313400
54	1	1.8	10.99859800	0.03589900	16.69213500
55	1	1.8	8.26155800	4.77659100	3.28313400
56	1	1.8	8.26155800	4.77659100	16.69213500
57	2	0.6	5.55006100	0.06732800	10.76933200
58	2	0.6	5.55006100	0.06732800	24.17833300
59	2	0.6	2.81302000	4.80802000	10.76933200
60	2	0.6	2.81302000	4.80802000	24.17833300
61	2	0.6	16.49822200	0.06732800	10.76933200
62	2	0.6	16.49822200	0.06732800	24.17833300
63	2	0.6	13.76118200	4.80802000	10.76933200
64	2	0.6	13.76118200	4.80802000	24.17833300
65	2	0.6	3.06753100	2.32571500	1.40617500
66	2	0.6	3.06753100	2.32571500	14.81517500
67	2	0.6	0.33049000	7.06640700	1.40617500
68	2	0.6	0.33049000	7.06640700	14.81517500
69	2	0.6	14.01569100	2.32571500	1.40617500
70	2	0.6	14.01569100	2.32571500	14.81517500
71	2	0.6	11.27865000	7.06640700	1.40617500
72	2	0.6	11.27865000	7.06640700	14.81517500
73	2	0.6	8.60122700	2.19922700	0.90062200
74	2	0.6	8.60122700	2.19922700	14.30962300
75	2	0.6	5.86418600	6.93991900	0.90062200
76	2	0.6	5.86418600	6.93991900	14.30962300
77	2	0.6	19.54938700	2.19922700	0.90062200
78	2	0.6	19.54938700	2.19922700	14.30962300
79	2	0.6	16.81234500	6.93991900	0.90062200
80	2	0.6	16.81234500	6.93991900	14.30962300
81	3	2.4	0.01917500	0.11841400	26.79879200
82	3	2.4	0.01917500	0.11841400	13.38979300
83	3	2.4	-2.71786600	4.85910700	26.79879200
84	3	2.4	-2.71786600	4.85910700	13.38979300
85	3	2.4	10.96733500	0.11841400	26.79879200
86	3	2.4	10.96733500	0.11841400	13.38979300
87	3	2.4	8.23029300	4.85910700	26.79879200
88	3	2.4	8.23029300	4.85910700	13.38979300
89	3	2.4	5.53879000	0.12618900	0.17693100
90	3	2.4	5.53879000	0.12618900	13.58593100
91	3	2.4	2.80174900	4.86688100	0.17693100
92	3	2.4	2.80174900	4.86688100	13.58593100
93	3	2.4	16.48695000	0.12618900	0.17693100
94	3	2.4	16.48695000	0.12618900	13.58593100
95	3	2.4	13.74990900	4.86688100	0.17693100
96	3	2.4	13.74990900	4.86688100	13.58593100
97	3	2.4	-0.00659900	0.04048300	6.77768300
98	3	2.4	-0.00659900	0.04048300	20.18668400
99	3	2.4	-2.74363900	4.78117500	6.77768300
100	3	2.4	-2.74363900	4.78117500	20.18668400
101	3	2.4	10.94156300	0.04048300	6.77768300
102	3	2.4	10.94156300	0.04048300	20.18668400
103	3	2.4	8.20452200	4.78117500	6.77768300
104	3	2.4	8.20452200	4.78117500	20.18668400
105	3	2.4	5.46557500	0.01053300	6.73888600
106	3	2.4	5.46557500	0.01053300	20.14788600
107	3	2.4	2.72853400	4.75122500	6.73888600
108	3	2.4	2.72853400	4.75122500	20.14788600
109	3	2.4	16.41373600	0.01053300	6.73888600
110	3	2.4	16.41373600	0.01053300	20.14788600
111	3	2.4	13.67669500	4.75122500	6.73888600
112	3	2.4	13.67669500	4.75122500	20.14788600
113	3	2.4	2.80761600	1.66116700	4.35779400
114	3	2.4	2.80761600	1.66116700	17.76679400
115	3	2.4	0.07057500	6.40185900	4.35779400
116	3	2.4	0.07057500	6.40185900	17.76679400
117	3	2.4	13.75577400	1.66116700	4.35779400
118	3	2.4	13.75577400	1.66116700	17.76679400
119	3	2.4	11.01873400	6.40185900	4.35779400
120	3	2.4	11.01873400	6.40185900	17.76679400
121	3	2.4	8.12364100	1.57205200	4.35901400
122	3	2.4	8.12364100	1.57205200	17.76801500
123	3	2.4	5.38660000	6.31274400	4.35901400
124	3	2.4	5.38660000	6.31274400	17.76801500
125	3	2.4	19.07179800	1.57205200	4.35901400
126	3	2.4	19.07179800	1.57205200	17.76801500
127	3	2.4	16.33475900	6.31274400	4.35901400
128	3	2.4	16.33475900	6.31274400	17.76801500
129	3	2.4	2.79005500	1.62951000	11.23403700
130	3	2.4	2.79005500	1.62951000	24.64304000
131	3	2.4	0.05301400	6.37020200	11.23403700
132	3	2.4	0.05301400	6.37020200	24.64304000
133	3	2.4	13.73821500	1.62951000	11.23403700
134	3	2.4	13.73821500	1.62951000	24.64304000
135	3	2.4	11.00117400	6.37020200	11.23403700
136	3	2.4	11.00117400	6.37020200	24.64304000
137	3	2.4	8.24740200	1.64621300	11.20212200
138	3	2.4	8.24740200	1.64621300	24.61112200
139	3	2.4	5.51036100	6.38690500	11.20212200
140	3	2.4	5.51036100	6.38690500	24.61112200
141	3	2.4	19.19556200	1.64621300	11.20212200
142	3	2.4	19.19556200	1.64621300	24.61112200
143	3	2.4	16.45852100	6.38690500	11.20212200
144	3	2.4	16.45852100	6.38690500	24.61112200
145	3	2.4	-0.00470600	3.20720900	9.07041100
146	3	2.4	-0.00470600	3.20720900	22.47941000
147	3	2.4	-2.74174700	7.94790100	9.07041100
148	3	2.4	-2.74174700	7.94790100	22.47941000
149	3	2.4	10.94345500	3.20720900	9.07041100
150	3	2.4	10.94345500	3.20720900	22.47941000
151	3	2.4	8.20641400	7.94790100	9.07041100
152	3	2.4	8.20641400	7.94790100	22.47941000
153	3	2.4	5.47542400	3.19364900	9.07808700
154	3	2.4	5.47542400	3.19364900	22.48708500
155	3	2.4	2.73838400	7.93434100	9.07808700
156	3	2.4	2.73838400	7.93434100	22.48708500
157	3	2.4	16.42358400	3.19364900	9.07808700
158	3	2.4	16.42358400	3.19364900	22.48708500
159	3	2.4	13.68654300	7.93434100	9.07808700
160	3	2.4	13.68654300	7.93434100	22.48708500
161	3	2.4	0.12392200	3.29007600	2.18884500
162	3	2.4	0.12392200	3.29007600	15.59784500
163	3	2.4	-2.61311900	8.03076800	2.18884500
164	3	2.4	-2.61311900	8.03076800	15.59784500
165	3	2.4	11.07208300	3.29007600	2.18884500
166	3	2.4	11.07208300	3.29007600	15.59784500
167	3	2.4	8.33504100	8.03076800	2.18884500
168	3	2.4	8.33504100	8.03076800	15.59784500
169	3	2.4	5.52234700	3.16921700	2.22037000
170	3	2.4	5.52234700	3.16921700	15.62937100
171	3	2.4	2.78530700	7.90991000	2.22037000
172	3	2.4	2.78530700	7.90991000	15.62937100
173	3	2.4	16.47050700	3.16921700	2.22037000
174	3	2.4	16.47050700	3.16921700	15.62937100
175	3	2.4	13.73346700	7.90991000	2.22037000
176	3	2.4	13.73346700	7.90991000	15.62937100
177	4	-1.2	-2.61113100	9.48116600	3.38990500
178	4	-1.2	-2.61113100	9.48116600	16.79890600
179	4	-1.2	0.12590900	4.74047400	3.38990500
180	4	-1.2	0.12590900	4.74047400	16.79890600
181	4	-1.2	8.33702900	9.48116600	3.38990500
182	4	-1.2	8.33702900	9.48116600	16.79890600
183	4	-1.2	11.07406900	4.74047400	3.38990500
184	4	-1.2	11.07406900	4.74047400	16.79890600
185	4	-1.2	5.82196800	4.67999500	3.46126300
186	4	-1.2	5.82196800	4.67999500	16.87026400
187	4	-1.2	3.08492700	9.42068700	3.46126300
188	4	-1.2	3.08492700	9.42068700	16.87026400
189	4	-1.2	16.77012600	4.67999500	3.46126300
190	4	-1.2	16.77012600	4.67999500	16.87026400
191	4	-1.2	14.03308700	9.42068700	3.46126300
192	4	-1.2	14.03308700	9.42068700	16.87026400
193	4	-1.2	2.43697200	0.00979700	10.06328600
194	4	-1.2	2.43697200	0.00979700	23.47228400
195	4	-1.2	-0.30006900	4.75048900	10.06328600
196	4	-1.2	-0.30006900	4.75048900	23.47228400
197	4	-1.2	13.38513200	0.00979700	10.06328600
198	4	-1.2	13.38513200	0.00979700	23.47228400
199	4	-1.2	10.64809100	4.75048900	10.06328600
200	4	-1.2	10.64809100	4.75048900	23.47228400
201	4	-1.2	5.10288100	4.70896400	10.14038600
202	4	-1.2	5.10288100	4.70896400	23.54938700
203	4	-1.2	2.36584000	9.44965600	10.14038600
204	4	-1.2	2.36584000	9.44965600	23.54938700
205	4	-1.2	16.05104100	4.70896400	10.14038600
206	4	-1.2	16.05104100	4.70896400	23.54938700
207	4	-1.2	13.31400100	9.44965600	10.14038600
208	4	-1.2	13.31400100	9.44965600	23.54938700
209	4	-1.2	20.37032700	2.62746300	3.43601600
210	4	-1.2	20.37032700	2.62746300	16.84501600
211	4	-1.2	17.63328700	7.36815500	3.43601600
212	4	-1.2	17.63328700	7.36815500	16.84501600
213	4	-1.2	9.42216700	2.62746300	3.43601600
214	4	-1.2	9.42216700	2.62746300	16.84501600
215	4	-1.2	6.68512600	7.36815500	3.43601600
216	4	-1.2	6.68512600	7.36815500	16.84501600
217	4	-1.2	3.95864400	2.64205200	3.37032900
218	4	-1.2	3.95864400	2.64205200	16.77932900
219	4	-1.2	1.22160300	7.38274300	3.37032900
220	4	-1.2	1.22160300	7.38274300	16.77932900
221	4	-1.2	14.90680400	2.64205200	3.37032900
222	4	-1.2	14.90680400	2.64205200	16.77932900
223	4	-1.2	12.16976400	7.38274300	3.37032900
224	4	-1.2	12.16976400	7.38274300	16.77932900
225	4	-1.2	9.66491200	2.14296900	10.04361500
226	4	-1.2	9.66491200	2.14296900	23.45261600
227	4	-1.2	6.92787100	6.88366100	10.04361500
228	4	-1.2	6.92787100	6.88366100	23.45261600
229	4	-1.2	20.61307300	2.14296900	10.04361500
230	4	-1.2	20.61307300	2.14296900	23.45261600
231	4	-1.2	17.87603200	6.88366100	10.04361500
232	4	-1.2	17.87603200	6.88366100	23.45261600
233	4	-1.2	4.25319400	2.04802800	10.00755300
234	4	-1.2	4.25319400	2.04802800	23.41655400
235	4	-1.2	1.51615400	6.78872000	10.00755300
236	4	-1.2	1.51615400	6.78872000	23.41655400
237	4	-1.2	15.20135400	2.04802800	10.00755300
238	4	-1.2	15.20135400	2.04802800	23.41655400
239	4	-1.2	12.46431300	6.78872000	10.00755300
240	4	-1.2	12.46431300	6.78872000	23.41655400
241	4	-1.2	1.13420200	2.17385700	3.46750800
242	4	-1.2	1.13420200	2.17385700	16.87650700
243	4	-1.2	-1.60283900	6.91454900	3.46750800
244	4	-1.2	-1.60283900	6.91454900	16.87650700
245	4	-1.2	12.08236200	2.17385700	3.46750800
246	4	-1.2	12.08236200	2.17385700	16.87650700
247	4	-1.2	9.34532200	6.91454900	3.46750800
248	4	-1.2	9.34532200	6.91454900	16.87650700
249	4	-1.2	6.63340000	2.18050500	3.45854300
250	4	-1.2	6.63340000	2.18050500	16.86754200
251	4	-1.2	3.89636000	6.92119700	3.45854300
252	4	-1.2	3.89636000	6.92119700	16.86754200
253	4	-1.2	17.58156000	2.18050500	3.45854300
254	4	-1.2	17.58156000	2.18050500	16.86754200
255	4	-1.2	14.84451900	6.92119700	3.45854300
256	4	-1.2	14.84451900	6.92119700	16.86754200
257	4	-1.2	1.51318700	2.67417600	10.08183000
258	4	-1.2	1.51318700	2.67417600	23.49083100
259	4	-1.2	-1.22385400	7.41486800	10.08183000
260	4	-1.2	-1.22385400	7.41486800	23.49083100
261	4	-1.2	12.46134800	2.67417600	10.08183000
262	4	-1.2	12.46134800	2.67417600	23.49083100
263	4	-1.2	9.72430700	7.41486800	10.08183000
264	4	-1.2	9.72430700	7.41486800	23.49083100
265	4	-1.2	6.95864500	2.58251700	10.06423900
266	4	-1.2	6.95864500	2.58251700	23.47323800
267	4	-1.2	4.22160400	7.32320900	10.06423900
268	4	-1.2	4.22160400	7.32320900	23.47323800
269	4	-1.2	17.90680700	2.58251700	10.06423900
270	4	-1.2	17.90680700	2.58251700	23.47323800
271	4	-1.2	15.16976500	7.32320900	10.06423900
272	4	-1.2	15.16976500	7.32320900	23.47323800
273	4	-1.2	0.32124600	1.64422400	7.75430700
274	4	-1.2	0.32124600	1.64422400	21.16330700
275	4	-1.2	-2.41579400	6.38491700	7.75430700
276	4	-1.2	-2.41579400	6.38491700	21.16330700
277	4	-1.2	11.26940600	1.64422400	7.75430700
278	4	-1.2	11.26940600	1.64422400	21.16330700
279	4	-1.2	8.53236600	6.38491700	7.75430700
280	4	-1.2	8.53236600	6.38491700	21.16330700
281	4	-1.2	5.75269200	1.66906500	7.72394800
282	4	-1.2	5.75269200	1.66906500	21.13294800
283	4	-1.2	3.01565100	6.40975800	7.72394800
284	4	-1.2	3.01565100	6.40975800	21.13294800
285	4	-1.2	16.70085100	1.66906500	7.72394800
286	4	-1.2	16.70085100	1.66906500	21.13294800
287	4	-1.2	13.96381100	6.40975800	7.72394800
288	4	-1.2	13.96381100	6.40975800	21.13294800
289	4	-1.2	-0.36146400	1.55353500	1.18800500
290	4	-1.2	-0.36146400	1.55353500	14.59700500
291	4	-1.2	-3.09850500	6.29422700	1.18800500
292	4	-1.2	-3.09850500	6.29422700	14.59700500
293	4	-1.2	10.58669600	1.55353500	1.18800500
294	4	-1.2	10.58669600	1.55353500	14.59700500
295	4	-1.2	7.84965500	6.29422700	1.18800500
296	4	-1.2	7.84965500	6.29422700	14.59700500
297	4	-1.2	5.01075000	1.68866900	1.03124200
298	4	-1.2	5.01075000	1.68866900	14.44024200
299	4	-1.2	2.27370900	6.42936200	1.03124200
300	4	-1.2	2.27370900	6.42936200	14.44024200
301	4	-1.2	15.95891100	1.68866900	1.03124200
302	4	-1.2	15.95891100	1.68866900	14.44024200
303	4	-1.2	13.22186900	6.42936200	1.03124200
304	4	-1.2	13.22186900	6.42936200	14.44024200
305	4	-1.2	1.15523200	4.21069400	7.77395900
306	4	-1.2	1.15523200	4.21069400	21.18295900
307	4	-1.2	-1.58180900	8.95138600	7.77395900
308	4	-1.2	-1.58180900	8.95138600	21.18295900
309	4	-1.2	12.10339200	4.21069400	7.77395900
310	4	-1.2	12.10339200	4.21069400	21.18295900
311	4	-1.2	9.36635100	8.95138600	7.77395900
312	4	-1.2	9.36635100	8.95138600	21.18295900
313	4	-1.2	6.61113200	4.21756000	7.77209700
314	4	-1.2	6.61113200	4.21756000	21.18109900
315	4	-1.2	3.87409100	8.95825200	7.77209700
316	4	-1.2	3.87409100	8.95825200	21.18109900
317	4	-1.2	17.55929000	4.21756000	7.77209700
318	4	-1.2	17.55929000	4.21756000	21.18109900
319	4	-1.2	14.82225000	8.95825200	7.77209700
320	4	-1.2	14.82225000	8.95825200	21.18109900
321	4	-1.2	1.52593200	3.56717900	0.99538900
322	4	-1.2	1.52593200	3.56717900	14.40439000
323	4	-1.2	-1.21110800	8.30787100	0.99538900
324	4	-1.2	-1.21110800	8.30787100	14.40439000
325	4	-1.2	12.47409300	3.56717900	0.99538900
326	4	-1.2	12.47409300	3.56717900	14.40439000
327	4	-1.2	9.73705200	8.30787100	0.99538900
328	4	-1.2	9.73705200	8.30787100	14.40439000
329	4	-1.2	7.03682300	3.59537500	1.16700300
330	4	-1.2	7.03682300	3.59537500	14.57600400
331	4	-1.2	4.29978300	8.33606700	1.16700300
332	4	-1.2	4.29978300	8.33606700	14.57600400
333	4	-1.2	17.98498500	3.59537500	1.16700300
334	4	-1.2	17.98498500	3.59537500	14.57600400
335	4	-1.2	15.24794400	8.33606700	1.16700300
336	4	-1.2	15.24794400	8.33606700	14.57600400
337	4	-1.2	-1.47739100	3.65284700	7.71417000
338	4	-1.2	-1.47739100	3.65284700	21.12316900
339	4	-1.2	-4.21443100	8.39353800	7.71417000
340	4	-1.2	-4.21443100	8.39353800	21.12316900
341	4	-1.2	9.47077000	3.65284700	7.71417000
342	4	-1.2	9.47077000	3.65284700	21.12316900
343	4	-1.2	6.73372900	8.39353800	7.71417000
344	4	-1.2	6.73372900	8.39353800	21.12316900
345	4	-1.2	3.96480400	3.70426500	7.80753100
346	4	-1.2	3.96480400	3.70426500	21.21653200
347	4	-1.2	1.22776300	8.44495800	7.80753100
348	4	-1.2	1.22776300	8.44495800	21.21653200
349	4	-1.2	14.91296300	3.70426500	7.80753100
350	4	-1.2	14.91296300	3.70426500	21.21653200
351	4	-1.2	12.17592200	8.44495800	7.80753100
352	4	-1.2	12.17592200	8.44495800	21.21653200
353	4	-1.2	-1.24720400	4.12487500	1.14018900
354	4	-1.2	-1.24720400	4.12487500	14.54919000
355	4	-1.2	-3.98424500	8.86556700	1.14018900
356	4	-1.2	-3.98424500	8.86556700	14.54919000
357	4	-1.2	9.70095500	4.12487500	1.14018900
358	4	-1.2	9.70095500	4.12487500	14.54919000
359	4	-1.2	6.96391500	8.86556700	1.14018900
360	4	-1.2	6.96391500	8.86556700	14.54919000
361	4	-1.2	4.28841000	4.20396400	1.07026400
362	4	-1.2	4.28841000	4.20396400	14.47926400
363	4	-1.2	1.55136900	8.94465500	1.07026400
364	4	-1.2	1.55136900	8.94465500	14.47926400
365	4	-1.2	15.23657000	4.20396400	1.07026400
366	4	-1.2	15.23657000	4.20396400	14.47926400
367	4	-1.2	12.49953000	8.94465500	1.07026400
368	4	-1.2	12.49953000	8.94465500	14.47926400
369	4	-1.2	3.09060800	3.21725300	12.22271700
370	4	-1.2	3.09060800	3.21725300	25.63171800
371	4	-1.2	0.35356800	7.95794500	12.22271700
372	4	-1.2	0.35356800	7.95794500	25.63171800
373	4	-1.2	14.03876800	3.21725300	12.22271700
374	4	-1.2	14.03876800	3.21725300	25.63171800
375	4	-1.2	11.30172700	7.95794500	12.22271700
376	4	-1.2	11.30172700	7.95794500	25.63171800
377	4	-1.2	8.52926900	3.11015800	12.39639500
378	4	-1.2	8.52926900	3.11015800	25.80539300
379	4	-1.2	5.79222900	7.85085000	12.39639500
380	4	-1.2	5.79222900	7.85085000	25.80539300
381	4	-1.2	19.47743000	3.11015800	12.39639500
382	4	-1.2	19.47743000	3.11015800	25.80539300
383	4	-1.2	16.74038900	7.85085000	12.39639500
384	4	-1.2	16.74038900	7.85085000	25.80539300
385	4	-1.2	2.45065100	3.08609800	5.72123100
386	4	-1.2	2.45065100	3.08609800	19.13023200
387	4	-1.2	-0.28639000	7.82679000	5.72123100
388	4	-1.2	-0.28639000	7.82679000	19.13023200
389	4	-1.2	13.39881000	3.08609800	5.72123100
390	4	-1.2	13.39881000	3.08609800	19.13023200
391	4	-1.2	10.66177000	7.82679000	5.72123100
392	4	-1.2	10.66177000	7.82679000	19.13023200
393	4	-1.2	7.85509200	3.15988700	5.61755100
394	4	-1.2	7.85509200	3.15988700	19.02655200
395	4	-1.2	5.11805100	7.90057800	5.61755100
396	4	-1.2	5.11805100	7.90057800	19.02655200
397	4	-1.2	18.80325100	3.15988700	5.61755100
398	4	-1.2	18.80325100	3.15988700	19.02655200
399	4	-1.2	16.06621000	7.90057800	5.61755100
400	4	-1.2	16.06621000	7.90057800	19.02655200
401	4	-1.2	1.25643000	1.08085500	12.36548000
402	4	-1.2	1.25643000	1.08085500	25.77448100
403	4	-1.2	-1.48061100	5.82154800	12.36548000
404	4	-1.2	-1.48061100	5.82154800	25.77448100
405	4	-1.2	12.20459000	1.08085500	12.36548000
406	4	-1.2	12.20459000	1.08085500	25.77448100
407	4	-1.2	9.46754800	5.82154800	12.36548000
408	4	-1.2	9.46754800	5.82154800	25.77448100
409	4	-1.2	6.63432700	1.08100700	12.29794000
410	4	-1.2	6.63432700	1.08100700	25.70694200
411	4	-1.2	3.89728600	5.82169900	12.29794000
412	4	-1.2	3.89728600	5.82169900	25.70694200
413	4	-1.2	17.58248500	1.08100700	12.29794000
414	4	-1.2	17.58248500	1.08100700	25.70694200
415	4	-1.2	14.84544600	5.82169900	12.29794000
416	4	-1.2	14.84544600	5.82169900	25.70694200
417	4	-1.2	1.43095400	0.51295800	5.55162300
418	4	-1.2	1.43095400	0.51295800	18.96062500
419	4	-1.2	-1.30608700	5.25365000	5.55162300
420	4	-1.2	-1.30608700	5.25365000	18.96062500
421	4	-1.2	12.37911400	0.51295800	5.55162300
422	4	-1.2	12.37911400	0.51295800	18.96062500
423	4	-1.2	9.64207400	5.25365000	5.55162300
424	4	-1.2	9.64207400	5.25365000	18.96062500
425	4	-1.2	7.03107500	0.56284400	5.70465500
426	4	-1.2	7.03107500	0.56284400	19.11365500
427	4	-1.2	4.29403400	5.30353600	5.70465500
428	4	-1.2	4.29403400	5.30353600	19.11365500
429	4	-1.2	17.97923500	0.56284400	5.70465500
430	4	-1.2	17.97923500	0.56284400	19.11365500
431	4	-1.2	15.24219400	5.30353600	5.70465500
432	4	-1.2	15.24219400	5.30353600	19.11365500
433	4	-1.2	4.00421700	0.50939500	12.21344800
434	4	-1.2	4.00421700	0.50939500	25.62244800
435	4	-1.2	1.26717700	5.25008700	12.21344800
436	4	-1.2	1.26717700	5.25008700	25.62244800
437	4	-1.2	14.95237800	0.50939500	12.21344800
438	4	-1.2	14.95237800	0.50939500	25.62244800
439	4	-1.2	12.21533800	5.25008700	12.21344800
440	4	-1.2	12.21533800	5.25008700	25.62244800
441	4	-1.2	9.42128800	0.55040500	12.35829500
442	4	-1.2	9.42128800	0.55040500	25.76729600
443	4	-1.2	6.68424800	5.29109700	12.35829500
444	4	-1.2	6.68424800	5.29109700	25.76729600
445	4	-1.2	20.36945000	0.55040500	12.35829500
446	4	-1.2	20.36945000	0.55040500	25.76729600
447	4	-1.2	17.63240800	5.29109700	12.35829500
448	4	-1.2	17.63240800	5.29109700	25.76729600
449	4	-1.2	4.14874200	1.04299300	5.67237100
450	4	-1.2	4.14874200	1.04299300	19.08137100
451	4	-1.2	1.41170100	5.78368500	5.67237100
452	4	-1.2	1.41170100	5.78368500	19.08137100
453	4	-1.2	15.09690200	1.04299300	5.67237100
454	4	-1.2	15.09690200	1.04299300	19.08137100
455	4	-1.2	12.35986100	5.78368500	5.67237100
456	4	-1.2	12.35986100	5.78368500	19.08137100
457	4	-1.2	9.69608100	1.08650500	5.63898800
458	4	-1.2	9.69608100	1.08650500	19.04798700
459	4	-1.2	6.95904000	5.82719700	5.63898800
460	4	-1.2	6.95904000	5.82719700	19.04798700
461	4	-1.2	20.64423900	1.08650500	5.63898800
462	4	-1.2	20.64423900	1.08650500	19.04798700
463	4	-1.2	17.90720000	5.82719700	5.63898800
464	4	-1.2	17.90720000	5.82719700	19.04798700
