       N       E                     dE             d eps       ncg     rms          rms(c)
DAV:   1     0.442250395359E+04    0.44225E+04   -0.84342E+04 28440   0.176E+03
DAV:   2     0.845479539953E+03   -0.35770E+04   -0.32271E+04 26672   0.527E+02
DAV:   3    -0.193266838643E+03   -0.10387E+04   -0.95044E+03 28472   0.259E+02
DAV:   4    -0.339091042779E+03   -0.14582E+03   -0.14359E+03 38344   0.105E+02
DAV:   5    -0.344830770620E+03   -0.57397E+01   -0.56957E+01 41472   0.252E+01    0.113E+02
DAV:   6    -0.280430506518E+03    0.64400E+02   -0.42217E+02 40336   0.890E+01    0.107E+02
DAV:   7    -0.306700548999E+03   -0.26270E+02   -0.93699E+01 34736   0.325E+01    0.662E+01
DAV:   8    -0.310251308992E+03   -0.35508E+01   -0.12622E+01 36336   0.123E+01    0.326E+01
DAV:   9    -0.311829449564E+03   -0.15781E+01   -0.74403E+00 33704   0.988E+00    0.122E+01
DAV:  10    -0.311621326930E+03    0.20812E+00   -0.11206E+01 33880   0.918E+00    0.615E+00
DAV:  11    -0.311360535291E+03    0.26079E+00   -0.13934E+00 37040   0.386E+00    0.395E+00
DAV:  12    -0.311274574598E+03    0.85961E-01   -0.29515E-01 34072   0.191E+00    0.266E+00
DAV:  13    -0.311270632186E+03    0.39424E-02   -0.10011E-01 34576   0.107E+00    0.208E+00
DAV:  14    -0.311277020404E+03   -0.63882E-02   -0.37783E-02 32848   0.868E-01    0.142E+00
DAV:  15    -0.311280056443E+03   -0.30360E-02   -0.23169E-02 32600   0.625E-01    0.827E-01
DAV:  16    -0.311281639632E+03   -0.15832E-02   -0.11176E-02 33168   0.410E-01    0.491E-01
DAV:  17    -0.311281000138E+03    0.63949E-03   -0.37818E-03 32496   0.259E-01    0.257E-01
DAV:  18    -0.311280975703E+03    0.24435E-04   -0.10926E-03 34784   0.125E-01    0.145E-01
DAV:  19    -0.311281000146E+03   -0.24443E-04   -0.31232E-04 32440   0.862E-02    0.831E-02
DAV:  20    -0.311281036943E+03   -0.36797E-04   -0.12346E-04 33712   0.500E-02    0.389E-02
DAV:  21    -0.311281093372E+03   -0.56429E-04   -0.43669E-05 28584   0.232E-02    0.241E-02
DAV:  22    -0.311281083788E+03    0.95839E-05   -0.86446E-06 20096   0.146E-02
   1 F= -.31128108E+03 E0= -.31128108E+03  d E =0.000000E+00  mag=     0.8810
