       N       E                     dE             d eps       ncg     rms          rms(c)
DAV:   1    -0.300107649242E+03   -0.30011E+03   -0.12706E+03 27744   0.122E+02    0.334E+01
DAV:   2    -0.328865034913E+03   -0.28757E+02   -0.29122E+02 39520   0.592E+01    0.562E+01
DAV:   3    -0.332023857655E+03   -0.31588E+01   -0.21137E+01 46752   0.156E+01    0.713E+01
DAV:   4    -0.331480845456E+03    0.54301E+00   -0.43733E+00 39200   0.912E+00    0.158E+01
DAV:   5    -0.330553901327E+03    0.92694E+00   -0.35444E+00 37696   0.714E+00    0.895E+00
DAV:   6    -0.330636116973E+03   -0.82216E-01   -0.85666E-01 42264   0.337E+00    0.855E+00
DAV:   7    -0.330606865346E+03    0.29252E-01   -0.15524E-01 42640   0.189E+00    0.558E+00
DAV:   8    -0.330567380264E+03    0.39485E-01   -0.10834E-01 40488   0.124E+00    0.390E+00
DAV:   9    -0.330565771864E+03    0.16084E-02   -0.25087E-02 41480   0.717E-01    0.282E+00
DAV:  10    -0.330564068830E+03    0.17030E-02   -0.47526E-03 45056   0.317E-01    0.268E+00
DAV:  11    -0.330562931213E+03    0.11376E-02   -0.10814E-03 44992   0.126E-01    0.248E+00
DAV:  12    -0.330560527334E+03    0.24039E-02   -0.19069E-03 38208   0.158E-01    0.189E+00
DAV:  13    -0.330559115722E+03    0.14116E-02   -0.18328E-03 38504   0.143E-01    0.137E+00
DAV:  14    -0.330559013399E+03    0.10232E-03   -0.30024E-04 43144   0.734E-02    0.119E+00
DAV:  15    -0.330558520026E+03    0.49337E-03   -0.38456E-04 30648   0.632E-02    0.882E-01
DAV:  16    -0.330557957363E+03    0.56266E-03   -0.11962E-03 37848   0.102E-01    0.448E-01
DAV:  17    -0.330557913505E+03    0.43858E-04   -0.20388E-04 39344   0.480E-02    0.344E-01
DAV:  18    -0.330557851946E+03    0.61559E-04   -0.79437E-05 31000   0.324E-02    0.241E-01
DAV:  19    -0.330557807612E+03    0.44335E-04   -0.16133E-04 37672   0.401E-02    0.856E-02
DAV:  20    -0.330557804449E+03    0.31627E-05   -0.23060E-05 18280   0.245E-02
   1 F= -.33055780E+03 E0= -.33055780E+03  d E =-.330558E+03  mag=    -0.0000
       N       E                     dE             d eps       ncg     rms          rms(c)
DAV:   1    -0.330557739288E+03    0.68324E-04   -0.51120E-03 25904   0.366E-01    0.530E-02
DAV:   2    -0.330557902553E+03   -0.16327E-03   -0.16933E-03 37136   0.138E-01    0.414E-02
DAV:   3    -0.330557903386E+03   -0.83298E-06   -0.38729E-05 26008   0.295E-02    0.257E-02
DAV:   4    -0.330557902423E+03    0.96375E-06   -0.68838E-06 17048   0.176E-02
   2 F= -.33055790E+03 E0= -.33055790E+03  d E =-.979739E-04  mag=     0.0000
       N       E                     dE             d eps       ncg     rms          rms(c)
DAV:   1    -0.330557646095E+03    0.25729E-03   -0.13770E-02 25104   0.570E-01    0.728E-02
DAV:   2    -0.330558009894E+03   -0.36380E-03   -0.37321E-03 37800   0.217E-01    0.534E-02
DAV:   3    -0.330558011840E+03   -0.19452E-05   -0.89731E-05 30696   0.429E-02    0.331E-02
DAV:   4    -0.330558009332E+03    0.25075E-05   -0.98144E-06 17760   0.211E-02
   3 F= -.33055801E+03 E0= -.33055801E+03  d E =-.106909E-03  mag=    -0.0000
       N       E                     dE             d eps       ncg     rms          rms(c)
DAV:   1    -0.330557720232E+03    0.29161E-03   -0.14803E-02 24736   0.576E-01    0.708E-02
DAV:   2    -0.330558072974E+03   -0.35274E-03   -0.36134E-03 37368   0.219E-01    0.526E-02
DAV:   3    -0.330558075966E+03   -0.29923E-05   -0.95472E-05 31928   0.431E-02    0.323E-02
DAV:   4    -0.330558073423E+03    0.25425E-05   -0.10633E-05 17912   0.213E-02
   4 F= -.33055807E+03 E0= -.33055807E+03  d E =-.640913E-04  mag=     0.0000
       N       E                     dE             d eps       ncg     rms          rms(c)
DAV:   1    -0.330557774760E+03    0.30121E-03   -0.15898E-02 24640   0.577E-01    0.687E-02
DAV:   2    -0.330558107819E+03   -0.33306E-03   -0.34145E-03 37296   0.223E-01    0.481E-02
DAV:   3    -0.330558112208E+03   -0.43886E-05   -0.10488E-04 32488   0.435E-02    0.297E-02
DAV:   4    -0.330558110074E+03    0.21345E-05   -0.11969E-05 17640   0.210E-02
   5 F= -.33055811E+03 E0= -.33055811E+03  d E =-.366502E-04  mag=     0.0000
       N       E                     dE             d eps       ncg     rms          rms(c)
DAV:   1    -0.330557703592E+03    0.40862E-03   -0.22004E-02 24592   0.661E-01    0.764E-02
DAV:   2    -0.330558117914E+03   -0.41432E-03   -0.42535E-03 37280   0.257E-01    0.507E-02
DAV:   3    -0.330558124693E+03   -0.67790E-05   -0.14335E-04 34216   0.501E-02    0.321E-02
DAV:   4    -0.330558122120E+03    0.25734E-05   -0.15810E-05 18792   0.234E-02
   6 F= -.33055812E+03 E0= -.33055812E+03  d E =-.120461E-04  mag=     0.0000
       N       E                     dE             d eps       ncg     rms          rms(c)
DAV:   1    -0.330557912119E+03    0.21257E-03   -0.11781E-02 24592   0.471E-01    0.526E-02
DAV:   2    -0.330558117090E+03   -0.20497E-03   -0.21104E-03 38056   0.186E-01    0.348E-02
DAV:   3    -0.330558119596E+03   -0.25058E-05   -0.59891E-05 28056   0.343E-02    0.221E-02
DAV:   4    -0.330558118186E+03    0.14098E-05   -0.97323E-06 14832   0.191E-02
   7 F= -.33055812E+03 E0= -.33055812E+03  d E =0.393383E-05  mag=     0.0000
       N       E                     dE             d eps       ncg     rms          rms(c)
DAV:   1    -0.330557969433E+03    0.15016E-03   -0.85426E-03 24576   0.391E-01    0.433E-02
DAV:   2    -0.330558110617E+03   -0.14118E-03   -0.14546E-03 38400   0.158E-01    0.275E-02
DAV:   3    -0.330558111659E+03   -0.10424E-05   -0.32734E-05 24184   0.278E-02    0.182E-02
DAV:   4    -0.330558110859E+03    0.80034E-06   -0.79899E-06 13688   0.170E-02
   8 F= -.33055811E+03 E0= -.33055811E+03  d E =0.732696E-05  mag=     0.0000
       N       E                     dE             d eps       ncg     rms          rms(c)
DAV:   1    -0.330557953383E+03    0.15828E-03   -0.92669E-03 24576   0.406E-01    0.445E-02
DAV:   2    -0.330558103784E+03   -0.15040E-03   -0.15500E-03 38456   0.164E-01    0.272E-02
DAV:   3    -0.330558105159E+03   -0.13758E-05   -0.36380E-05 25520   0.286E-02    0.175E-02
DAV:   4    -0.330558104339E+03    0.82012E-06   -0.77468E-06 13208   0.171E-02
   9 F= -.33055810E+03 E0= -.33055810E+03  d E =0.651965E-05  mag=     0.0000
       N       E                     dE             d eps       ncg     rms          rms(c)
DAV:   1    -0.330557813611E+03    0.29155E-03   -0.17926E-02 24512   0.559E-01    0.616E-02
DAV:   2    -0.330558090158E+03   -0.27655E-03   -0.28533E-03 38264   0.224E-01    0.365E-02
DAV:   3    -0.330558094482E+03   -0.43245E-05   -0.85022E-05 33832   0.387E-02    0.233E-02
DAV:   4    -0.330558092947E+03    0.15347E-05   -0.83338E-06 13560   0.187E-02
  10 F= -.33055809E+03 E0= -.33055809E+03  d E =0.113917E-04  mag=     0.0000
       N       E                     dE             d eps       ncg     rms          rms(c)
DAV:   1    -0.330557616314E+03    0.47817E-03   -0.31109E-02 24456   0.727E-01    0.809E-02
DAV:   2    -0.330558072174E+03   -0.45586E-03   -0.47070E-03 38104   0.293E-01    0.475E-02
DAV:   3    -0.330558079839E+03   -0.76648E-05   -0.14442E-04 37912   0.489E-02    0.309E-02
DAV:   4    -0.330558076867E+03    0.29720E-05   -0.11346E-05 15176   0.217E-02
  11 F= -.33055808E+03 E0= -.33055808E+03  d E =0.160802E-04  mag=     0.0000
       N       E                     dE             d eps       ncg     rms          rms(c)
DAV:   1    -0.330557426933E+03    0.65291E-03   -0.44877E-02 24352   0.862E-01    0.972E-02
DAV:   2    -0.330558053559E+03   -0.62663E-03   -0.64760E-03 38104   0.344E-01    0.574E-02
DAV:   3    -0.330558064512E+03   -0.10953E-04   -0.20707E-04 40648   0.573E-02    0.380E-02
DAV:   4    -0.330558059876E+03    0.46356E-05   -0.14973E-05 16808   0.237E-02
  12 F= -.33055806E+03 E0= -.33055806E+03  d E =0.169909E-04  mag=    -0.0000
       N       E                     dE             d eps       ncg     rms          rms(c)
DAV:   1    -0.330557340241E+03    0.72427E-03   -0.50922E-02 24288   0.910E-01    0.101E-01
DAV:   2    -0.330558035008E+03   -0.69477E-03   -0.71879E-03 38016   0.364E-01    0.630E-02
DAV:   3    -0.330558046627E+03   -0.11619E-04   -0.22940E-04 41232   0.602E-02    0.419E-02
DAV:   4    -0.330558040683E+03    0.59446E-05   -0.17648E-05 17664   0.254E-02
  13 F= -.33055804E+03 E0= -.33055804E+03  d E =0.191936E-04  mag=    -0.0000
       N       E                     dE             d eps       ncg     rms          rms(c)
DAV:   1    -0.330557450416E+03    0.59621E-03   -0.42910E-02 24256   0.829E-01    0.919E-02
DAV:   2    -0.330558023126E+03   -0.57271E-03   -0.59309E-03 37976   0.329E-01    0.590E-02
DAV:   3    -0.330558032476E+03   -0.93499E-05   -0.18822E-04 40160   0.547E-02    0.390E-02
DAV:   4    -0.330558027280E+03    0.51956E-05   -0.14844E-05 15512   0.242E-02
  14 F= -.33055803E+03 E0= -.33055803E+03  d E =0.134024E-04  mag=    -0.0000
       N       E                     dE             d eps       ncg     rms          rms(c)
DAV:   1    -0.330557681261E+03    0.35121E-03   -0.25956E-02 24312   0.639E-01    0.726E-02
DAV:   2    -0.330558020977E+03   -0.33972E-03   -0.35183E-03 38200   0.253E-01    0.463E-02
DAV:   3    -0.330558026179E+03   -0.52017E-05   -0.10789E-04 36256   0.425E-02    0.300E-02
DAV:   4    -0.330558023460E+03    0.27191E-05   -0.10053E-05 13648   0.211E-02
  15 F= -.33055802E+03 E0= -.33055802E+03  d E =0.382051E-05  mag=    -0.0000
       N       E                     dE             d eps       ncg     rms          rms(c)
DAV:   1    -0.330557261236E+03    0.76494E-03   -0.59964E-02 24216   0.966E-01    0.119E-01
DAV:   2    -0.330558016115E+03   -0.75488E-03   -0.78033E-03 37704   0.380E-01    0.650E-02
DAV:   3    -0.330558028867E+03   -0.12752E-04   -0.25227E-04 41720   0.633E-02    0.433E-02
DAV:   4    -0.330558022624E+03    0.62431E-05   -0.17567E-05 16080   0.256E-02
  16 F= -.33055802E+03 E0= -.33055802E+03  d E =0.835800E-06  mag=    -0.0000
       N       E                     dE             d eps       ncg     rms          rms(c)
DAV:   1    -0.330557519823E+03    0.50904E-03   -0.39986E-02 24228   0.787E-01    0.920E-02
DAV:   2    -0.330558023307E+03   -0.50348E-03   -0.52126E-03 37880   0.305E-01    0.572E-02
DAV:   3    -0.330558030880E+03   -0.75730E-05   -0.16675E-04 39300   0.518E-02    0.376E-02
DAV:   4    -0.330558025967E+03    0.49129E-05   -0.13907E-05 13952   0.238E-02
  17 F= -.33055803E+03 E0= -.33055803E+03  d E =-.334319E-05  mag=    -0.0000
       N       E                     dE             d eps       ncg     rms          rms(c)
DAV:   1    -0.330557448806E+03    0.58207E-03   -0.46555E-02 24176   0.847E-01    0.105E-01
DAV:   2    -0.330558029735E+03   -0.58093E-03   -0.60116E-03 37816   0.331E-01    0.595E-02
DAV:   3    -0.330558039215E+03   -0.94792E-05   -0.19594E-04 40792   0.558E-02    0.393E-02
DAV:   4    -0.330558033959E+03    0.52555E-05   -0.14692E-05 14424   0.239E-02
  18 F= -.33055803E+03 E0= -.33055803E+03  d E =-.799187E-05  mag=    -0.0000
       N       E                     dE             d eps       ncg     rms          rms(c)
DAV:   1    -0.330557115803E+03    0.92341E-03   -0.74393E-02 24136   0.107E+00    0.132E-01
DAV:   2    -0.330558041971E+03   -0.92617E-03   -0.95782E-03 37808   0.414E-01    0.753E-02
DAV:   3    -0.330558054766E+03   -0.12795E-04   -0.29755E-04 42136   0.690E-02    0.506E-02
DAV:   4    -0.330558045726E+03    0.90396E-05   -0.24421E-05 19000   0.285E-02
  19 F= -.33055805E+03 E0= -.33055805E+03  d E =-.117670E-04  mag=    -0.0000
       N       E                     dE             d eps       ncg     rms          rms(c)
DAV:   1    -0.330556716776E+03    0.13380E-02   -0.10621E-01 24108   0.129E+00    0.156E-01
DAV:   2    -0.330558056036E+03   -0.13393E-02   -0.13855E-02 37488   0.494E-01    0.908E-02
DAV:   3    -0.330558073388E+03   -0.17352E-04   -0.42044E-04 42568   0.824E-02    0.609E-02
DAV:   4    -0.330558061202E+03    0.12186E-04   -0.48366E-05 28576   0.338E-02    0.418E-02
DAV:   5    -0.330558058463E+03    0.27387E-05   -0.13826E-05 13952   0.234E-02
  20 F= -.33055806E+03 E0= -.33055806E+03  d E =-.127369E-04  mag=     0.0000
       N       E                     dE             d eps       ncg     rms          rms(c)
DAV:   1    -0.330557705148E+03    0.35605E-03   -0.26388E-02 24152   0.658E-01    0.818E-02
DAV:   2    -0.330558067145E+03   -0.36200E-03   -0.37557E-03 37880   0.258E-01    0.409E-02
DAV:   3    -0.330558072831E+03   -0.56854E-05   -0.11052E-04 36136   0.439E-02    0.250E-02
DAV:   4    -0.330558070586E+03    0.22443E-05   -0.10015E-05 12992   0.208E-02
  21 F= -.33055807E+03 E0= -.33055807E+03  d E =-.121234E-04  mag=    -0.0000
       N       E                     dE             d eps       ncg     rms          rms(c)
DAV:   1    -0.330557715138E+03    0.35769E-03   -0.27853E-02 24156   0.659E-01    0.885E-02
DAV:   2    -0.330558067538E+03   -0.35240E-03   -0.36394E-03 37152   0.261E-01    0.417E-02
DAV:   3    -0.330558069674E+03   -0.21360E-05   -0.86794E-05 32048   0.418E-02    0.283E-02
DAV:   4    -0.330558066518E+03    0.31560E-05   -0.70170E-06 12844   0.179E-02
  22 F= -.33055807E+03 E0= -.33055807E+03  d E =0.406863E-05  mag=    -0.0000
       N       E                     dE             d eps       ncg     rms          rms(c)
DAV:   1    -0.330558065454E+03    0.42200E-05   -0.22759E-05 15004   0.216E-02    0.477E-03
DAV:   2    -0.330558066114E+03   -0.66015E-06   -0.69375E-06 12752   0.227E-02    0.205E-03
DAV:   3    -0.330558066440E+03   -0.32558E-06   -0.33822E-06 12656   0.106E-02    0.172E-03
DAV:   4    -0.330558066623E+03   -0.18383E-06   -0.18943E-06 12656   0.121E-02
  23 F= -.33055807E+03 E0= -.33055807E+03  d E =-.105560E-06  mag=    -0.0000
