<?xml version="1.0" encoding="ISO-8859-1"?>
<modeling>
 <generator>
  <i name="program" type="string">vasp </i>
  <i name="version" type="string">5.4.4.18Apr17-6-g9f103f2a35  </i>
  <i name="subversion" type="string">(build Nov 06 2019 13:43:20) complex            parallel </i>
  <i name="platform" type="string">LinuxIFC </i>
  <i name="date" type="string">2021 07 28 </i>
  <i name="time" type="string">13:08:27 </i>
 </generator>
 <incar>
  <i type="string" name="PREC">accurate</i>
  <i type="int" name="ISPIN">     2</i>
  <i type="int" name="NELM">  2000</i>
  <i type="int" name="NELMIN">     4</i>
  <i type="int" name="IBRION">     8</i>
  <i name="EDIFF">      0.00001000</i>
  <i name="ENCUT">    500.00000000</i>
  <i type="int" name="ISMEAR">    -5</i>
  <i name="SIGMA">      0.05000000</i>
  <v type="int" name="KPOINT_BSE">    -1     0     0     0</v>
  <i type="int" name="NELM">  2000</i>
 </incar>
 <structure name="primitive_cell" >
  <crystal>
   <varray name="basis" >
    <v>       7.85863038       0.00005142      -0.13760597 </v>
    <v>       0.00005109       7.69057214       0.00001816 </v>
    <v>      -0.13792247       0.00001857       7.73517286 </v>
   </varray>
   <i name="volume">    467.34749763 </i>
   <varray name="rec_basis" >
    <v>       0.12728838      -0.00000085       0.00226962 </v>
    <v>      -0.00000086       0.13002934      -0.00000033 </v>
    <v>       0.00226441      -0.00000032       0.12931997 </v>
   </varray>
  </crystal>
  <varray name="positions" >
   <v>       0.00912359       0.00022486       0.49738218 </v>
   <v>       0.23366687       0.00024007      -0.28948669 </v>
   <v>      -0.20124343      -0.22566437       0.49252258 </v>
   <v>      -0.20124392       0.22614079       0.49252218 </v>
   <v>       0.28956278       0.00024788       0.31184933 </v>
   <v>       0.00716643      -0.20442948       0.21117901 </v>
   <v>       0.00716727       0.20491996       0.21116991 </v>
   <v>      -0.18926830       0.00023852      -0.21790874 </v>
   <v>       0.22467437      -0.29114396       0.49854067 </v>
   <v>       0.22467983       0.29163475       0.49853915 </v>
   <v>       0.02280738      -0.29212260      -0.22367685 </v>
   <v>       0.02280387       0.29259176      -0.22367831 </v>
   <v>      -0.29115536       0.00024379       0.20378457 </v>
   <v>       0.24151311       0.24301026       0.24899601 </v>
   <v>       0.24150012      -0.24258846       0.24898876 </v>
   <v>       0.43264542       0.00021380      -0.45014018 </v>
   <v>       0.26033041       0.24368524      -0.22062944 </v>
   <v>       0.26034076      -0.24323803      -0.22061718 </v>
   <v>      -0.27483718       0.24561075       0.24834576 </v>
   <v>      -0.27484395      -0.24514554       0.24834770 </v>
   <v>      -0.26474150       0.23598540      -0.24455085 </v>
   <v>      -0.26475057      -0.23552672      -0.24453952 </v>
   <v>      -0.07808857       0.00021596       0.04600415 </v>
   <v>      -0.00969351      -0.49975459      -0.48283458 </v>
   <v>      -0.48954415      -0.21395887      -0.30412586 </v>
   <v>      -0.48954051       0.21443309      -0.30412881 </v>
   <v>      -0.20485292      -0.49975664       0.27043005 </v>
   <v>      -0.26294256      -0.49975759      -0.29333630 </v>
   <v>       0.21069832      -0.49974642       0.21560191 </v>
   <v>       0.30357570      -0.20252846       0.00838388 </v>
   <v>       0.30360012       0.20303658       0.00837409 </v>
   <v>       0.45153384       0.00022071       0.09088344 </v>
   <v>      -0.49672903      -0.29148801       0.28042108 </v>
   <v>      -0.49672393       0.29199960       0.28039855 </v>
   <v>      -0.27486363      -0.29411924      -0.00791151 </v>
   <v>      -0.27489631       0.29462099      -0.00791989 </v>
   <v>       0.31925959      -0.49976265      -0.20682298 </v>
   <v>       0.47823377      -0.49975983      -0.48213259 </v>
   <v>      -0.02691718      -0.49976935       0.01052307 </v>
   <v>      -0.48506302      -0.49996294      -0.00929077 </v>
  </varray>
 </structure>
 <varray name="primitive_index" >
  <v type="int" >        1 </v>
  <v type="int" >       22 </v>
  <v type="int" >       38 </v>
  <v type="int" >       32 </v>
  <v type="int" >       19 </v>
  <v type="int" >       24 </v>
  <v type="int" >       18 </v>
  <v type="int" >       34 </v>
  <v type="int" >       26 </v>
  <v type="int" >       20 </v>
  <v type="int" >       27 </v>
  <v type="int" >       21 </v>
  <v type="int" >       31 </v>
  <v type="int" >        9 </v>
  <v type="int" >       11 </v>
  <v type="int" >        7 </v>
  <v type="int" >       10 </v>
  <v type="int" >       12 </v>
  <v type="int" >       13 </v>
  <v type="int" >       15 </v>
  <v type="int" >       14 </v>
  <v type="int" >       16 </v>
  <v type="int" >        5 </v>
  <v type="int" >        3 </v>
  <v type="int" >       39 </v>
  <v type="int" >       33 </v>
  <v type="int" >       37 </v>
  <v type="int" >       40 </v>
  <v type="int" >       25 </v>
  <v type="int" >       23 </v>
  <v type="int" >       17 </v>
  <v type="int" >        6 </v>
  <v type="int" >       36 </v>
  <v type="int" >       30 </v>
  <v type="int" >       35 </v>
  <v type="int" >       29 </v>
  <v type="int" >       28 </v>
  <v type="int" >        4 </v>
  <v type="int" >        2 </v>
  <v type="int" >        8 </v>
 </varray>
 <kpoints>
  <generation param="Monkhorst-Pack">
   <v type="int" name="divisions">       4        4        4 </v>
   <v name="usershift">      0.00000000       0.00000000       0.00000000 </v>
   <v name="genvec1">      0.25000000       0.00000000      -0.00000000 </v>
   <v name="genvec2">      0.00000000       0.25000000       0.00000000 </v>
   <v name="genvec3">      0.00000000       0.00000000       0.25000000 </v>
   <v name="shift">      0.50000000       0.50000000       0.50000000 </v>
  </generation>
  <varray name="kpointlist" >
   <v>       0.12500000       0.12500000       0.12500000 </v>
   <v>       0.37500000       0.12500000       0.12500000 </v>
   <v>      -0.37500000       0.12500000       0.12500000 </v>
   <v>      -0.12500000       0.12500000       0.12500000 </v>
   <v>       0.12500000       0.37500000       0.12500000 </v>
   <v>       0.37500000       0.37500000       0.12500000 </v>
   <v>      -0.37500000       0.37500000       0.12500000 </v>
   <v>      -0.12500000       0.37500000       0.12500000 </v>
   <v>       0.12500000      -0.37500000       0.12500000 </v>
   <v>       0.37500000      -0.37500000       0.12500000 </v>
   <v>      -0.37500000      -0.37500000       0.12500000 </v>
   <v>      -0.12500000      -0.37500000       0.12500000 </v>
   <v>       0.12500000      -0.12500000       0.12500000 </v>
   <v>       0.37500000      -0.12500000       0.12500000 </v>
   <v>      -0.37500000      -0.12500000       0.12500000 </v>
   <v>      -0.12500000      -0.12500000       0.12500000 </v>
   <v>       0.12500000       0.12500000       0.37500000 </v>
   <v>       0.37500000       0.12500000       0.37500000 </v>
   <v>      -0.37500000       0.12500000       0.37500000 </v>
   <v>      -0.12500000       0.12500000       0.37500000 </v>
   <v>       0.12500000       0.37500000       0.37500000 </v>
   <v>       0.37500000       0.37500000       0.37500000 </v>
   <v>      -0.37500000       0.37500000       0.37500000 </v>
   <v>      -0.12500000       0.37500000       0.37500000 </v>
   <v>       0.12500000      -0.37500000       0.37500000 </v>
   <v>       0.37500000      -0.37500000       0.37500000 </v>
   <v>      -0.37500000      -0.37500000       0.37500000 </v>
   <v>      -0.12500000      -0.37500000       0.37500000 </v>
   <v>       0.12500000      -0.12500000       0.37500000 </v>
   <v>       0.37500000      -0.12500000       0.37500000 </v>
   <v>      -0.37500000      -0.12500000       0.37500000 </v>
   <v>      -0.12500000      -0.12500000       0.37500000 </v>
  </varray>
  <varray name="weights" >
   <v>       0.03125000 </v>
   <v>       0.03125000 </v>
   <v>       0.03125000 </v>
   <v>       0.03125000 </v>
   <v>       0.03125000 </v>
   <v>       0.03125000 </v>
   <v>       0.03125000 </v>
   <v>       0.03125000 </v>
   <v>       0.03125000 </v>
   <v>       0.03125000 </v>
   <v>       0.03125000 </v>
   <v>       0.03125000 </v>
   <v>       0.03125000 </v>
   <v>       0.03125000 </v>
   <v>       0.03125000 </v>
   <v>       0.03125000 </v>
   <v>       0.03125000 </v>
   <v>       0.03125000 </v>
   <v>       0.03125000 </v>
   <v>       0.03125000 </v>
   <v>       0.03125000 </v>
   <v>       0.03125000 </v>
   <v>       0.03125000 </v>
   <v>       0.03125000 </v>
   <v>       0.03125000 </v>
   <v>       0.03125000 </v>
   <v>       0.03125000 </v>
   <v>       0.03125000 </v>
   <v>       0.03125000 </v>
   <v>       0.03125000 </v>
   <v>       0.03125000 </v>
   <v>       0.03125000 </v>
  </varray>
  <varray name="tetrahedronlist"  type="int" >
   <v type="int" >        2        1        2        6       17 </v>
   <v type="int" >        2        1        5        6       17 </v>
   <v type="int" >        2        5        6       17       21 </v>
   <v type="int" >        2        2        6       17       18 </v>
   <v type="int" >        2        6       17       18       22 </v>
   <v type="int" >        2        6       17       21       22 </v>
   <v type="int" >        2        2        3        7       18 </v>
   <v type="int" >        2        2        6        7       18 </v>
   <v type="int" >        2        6        7       18       22 </v>
   <v type="int" >        2        3        7       18       19 </v>
   <v type="int" >        2        7       18       19       23 </v>
   <v type="int" >        2        7       18       22       23 </v>
   <v type="int" >        2        3        4        8       19 </v>
   <v type="int" >        2        3        7        8       19 </v>
   <v type="int" >        2        7        8       19       23 </v>
   <v type="int" >        2        4        8       19       20 </v>
   <v type="int" >        2        8       19       20       24 </v>
   <v type="int" >        2        8       19       23       24 </v>
   <v type="int" >        2        1        4        5       20 </v>
   <v type="int" >        2        4        5        8       20 </v>
   <v type="int" >        2        5        8       20       24 </v>
   <v type="int" >        2        1        5       17       20 </v>
   <v type="int" >        2        5       17       20       21 </v>
   <v type="int" >        2        5       20       21       24 </v>
   <v type="int" >        2        5        6       10       21 </v>
   <v type="int" >        2        5        9       10       21 </v>
   <v type="int" >        2        9       10       21       25 </v>
   <v type="int" >        2        6       10       21       22 </v>
   <v type="int" >        2       10       21       22       26 </v>
   <v type="int" >        2       10       21       25       26 </v>
   <v type="int" >        2        6        7       11       22 </v>
   <v type="int" >        2        6       10       11       22 </v>
   <v type="int" >        2       10       11       22       26 </v>
   <v type="int" >        2        7       11       22       23 </v>
   <v type="int" >        2       11       22       23       27 </v>
   <v type="int" >        2       11       22       26       27 </v>
   <v type="int" >        2        7        8       12       23 </v>
   <v type="int" >        2        7       11       12       23 </v>
   <v type="int" >        2       11       12       23       27 </v>
   <v type="int" >        2        8       12       23       24 </v>
   <v type="int" >        2       12       23       24       28 </v>
   <v type="int" >        2       12       23       27       28 </v>
   <v type="int" >        2        5        8        9       24 </v>
   <v type="int" >        2        8        9       12       24 </v>
   <v type="int" >        2        9       12       24       28 </v>
   <v type="int" >        2        5        9       21       24 </v>
   <v type="int" >        2        9       21       24       25 </v>
   <v type="int" >        2        9       24       25       28 </v>
   <v type="int" >        2        9       10       14       25 </v>
   <v type="int" >        2        9       13       14       25 </v>
   <v type="int" >        2       13       14       25       29 </v>
   <v type="int" >        2       10       14       25       26 </v>
   <v type="int" >        2       14       25       26       30 </v>
   <v type="int" >        2       14       25       29       30 </v>
   <v type="int" >        2       10       11       15       26 </v>
   <v type="int" >        2       10       14       15       26 </v>
   <v type="int" >        2       14       15       26       30 </v>
   <v type="int" >        2       11       15       26       27 </v>
   <v type="int" >        2       15       26       27       31 </v>
   <v type="int" >        2       15       26       30       31 </v>
   <v type="int" >        2       11       12       16       27 </v>
   <v type="int" >        2       11       15       16       27 </v>
   <v type="int" >        2       15       16       27       31 </v>
   <v type="int" >        2       12       16       27       28 </v>
   <v type="int" >        2       16       27       28       32 </v>
   <v type="int" >        2       16       27       31       32 </v>
   <v type="int" >        2        9       12       13       28 </v>
   <v type="int" >        2       12       13       16       28 </v>
   <v type="int" >        2       13       16       28       32 </v>
   <v type="int" >        2        9       13       25       28 </v>
   <v type="int" >        2       13       25       28       29 </v>
   <v type="int" >        2       13       28       29       32 </v>
   <v type="int" >        2        2       13       14       29 </v>
   <v type="int" >        2        1        2       13       29 </v>
   <v type="int" >        2        1        2       17       29 </v>
   <v type="int" >        2        2       14       29       30 </v>
   <v type="int" >        2        2       18       29       30 </v>
   <v type="int" >        2        2       17       18       29 </v>
   <v type="int" >        2        3       14       15       30 </v>
   <v type="int" >        2        2        3       14       30 </v>
   <v type="int" >        2        2        3       18       30 </v>
   <v type="int" >        2        3       15       30       31 </v>
   <v type="int" >        2        3       19       30       31 </v>
   <v type="int" >        2        3       18       19       30 </v>
   <v type="int" >        2        4       15       16       31 </v>
   <v type="int" >        2        3        4       15       31 </v>
   <v type="int" >        2        3        4       19       31 </v>
   <v type="int" >        2        4       16       31       32 </v>
   <v type="int" >        2        4       20       31       32 </v>
   <v type="int" >        2        4       19       20       31 </v>
   <v type="int" >        2        1       13       16       32 </v>
   <v type="int" >        2        1        4       16       32 </v>
   <v type="int" >        2        1        4       20       32 </v>
   <v type="int" >        2        1       13       29       32 </v>
   <v type="int" >        2        1       17       29       32 </v>
   <v type="int" >        2        1       17       20       32 </v>
   <v type="int" >        2       17       18       22       32 </v>
   <v type="int" >        2       17       21       22       32 </v>
   <v type="int" >        2       21       22       28       32 </v>
   <v type="int" >        2       18       22       31       32 </v>
   <v type="int" >        2       22       27       31       32 </v>
   <v type="int" >        2       22       27       28       32 </v>
   <v type="int" >        2       18       19       23       31 </v>
   <v type="int" >        2       18       22       23       31 </v>
   <v type="int" >        2       22       23       27       31 </v>
   <v type="int" >        2       19       23       30       31 </v>
   <v type="int" >        2       23       26       30       31 </v>
   <v type="int" >        2       23       26       27       31 </v>
   <v type="int" >        2       19       20       24       30 </v>
   <v type="int" >        2       19       23       24       30 </v>
   <v type="int" >        2       23       24       26       30 </v>
   <v type="int" >        2       20       24       29       30 </v>
   <v type="int" >        2       24       25       29       30 </v>
   <v type="int" >        2       24       25       26       30 </v>
   <v type="int" >        2       17       20       21       29 </v>
   <v type="int" >        2       20       21       24       29 </v>
   <v type="int" >        2       21       24       25       29 </v>
   <v type="int" >        2       17       21       29       32 </v>
   <v type="int" >        2       21       28       29       32 </v>
   <v type="int" >        2       21       25       28       29 </v>
   <v type="int" >        2       21       22       26       28 </v>
   <v type="int" >        2       21       25       26       28 </v>
   <v type="int" >        2       24       25       26       28 </v>
   <v type="int" >        2       22       26       27       28 </v>
   <v type="int" >        2       23       26       27       28 </v>
   <v type="int" >        2       23       24       26       28 </v>
   <v type="int" >        2       22       23       27       27 </v>
   <v type="int" >        2       22       26       27       27 </v>
   <v type="int" >        2       23       26       27       27 </v>
   <v type="int" >        2       21       24       25       25 </v>
   <v type="int" >        2       24       25       25       28 </v>
   <v type="int" >        2       21       25       25       28 </v>
   <v type="int" >        2       18       20       29       30 </v>
   <v type="int" >        2       17       18       20       29 </v>
   <v type="int" >        2       17       18       20       32 </v>
   <v type="int" >        2       18       19       20       30 </v>
   <v type="int" >        2       18       19       20       31 </v>
   <v type="int" >        2       18       20       31       32 </v>
   <v type="int" >        2       19       19       30       31 </v>
   <v type="int" >        2       18       19       19       30 </v>
   <v type="int" >        2       18       19       19       31 </v>
   <v type="int" >        2       17       17       29       32 </v>
   <v type="int" >        2       17       17       20       32 </v>
   <v type="int" >        2       17       17       20       29 </v>
   <v type="int" >        2        1       11       15       16 </v>
   <v type="int" >        2        1       11       12       16 </v>
   <v type="int" >        2        1        5       11       12 </v>
   <v type="int" >        2        1        2       11       15 </v>
   <v type="int" >        2        1        2        6       11 </v>
   <v type="int" >        2        1        5        6       11 </v>
   <v type="int" >        2        2       10       14       15 </v>
   <v type="int" >        2        2       10       11       15 </v>
   <v type="int" >        2        2        6       10       11 </v>
   <v type="int" >        2        2        3       10       14 </v>
   <v type="int" >        2        2        3        7       10 </v>
   <v type="int" >        2        2        6        7       10 </v>
   <v type="int" >        2        3        9       13       14 </v>
   <v type="int" >        2        3        9       10       14 </v>
   <v type="int" >        2        3        7        9       10 </v>
   <v type="int" >        2        3        4        9       13 </v>
   <v type="int" >        2        3        4        8        9 </v>
   <v type="int" >        2        3        7        8        9 </v>
   <v type="int" >        2        4       12       13       16 </v>
   <v type="int" >        2        4        9       12       13 </v>
   <v type="int" >        2        4        8        9       12 </v>
   <v type="int" >        2        1        4       12       16 </v>
   <v type="int" >        2        1        4        5       12 </v>
   <v type="int" >        2        4        5        8       12 </v>
   <v type="int" >        2        5        7       11       12 </v>
   <v type="int" >        2        5        7        8       12 </v>
   <v type="int" >        2        5        7        8        9 </v>
   <v type="int" >        2        5        6        7       11 </v>
   <v type="int" >        2        5        6        7       10 </v>
   <v type="int" >        2        5        7        9       10 </v>
   <v type="int" >        2        6        6       10       11 </v>
   <v type="int" >        2        6        6        7       11 </v>
   <v type="int" >        2        6        6        7       10 </v>
   <v type="int" >        2        8        8        9       12 </v>
   <v type="int" >        2        5        8        8        9 </v>
   <v type="int" >        2        5        8        8       12 </v>
   <v type="int" >        2        3        4       13       15 </v>
   <v type="int" >        2        4       13       15       16 </v>
   <v type="int" >        2        1       13       15       16 </v>
   <v type="int" >        2        3       13       14       15 </v>
   <v type="int" >        2        2       13       14       15 </v>
   <v type="int" >        2        1        2       13       15 </v>
   <v type="int" >        2        2        3       14       14 </v>
   <v type="int" >        2        3       14       14       15 </v>
   <v type="int" >        2        2       14       14       15 </v>
   <v type="int" >        2        1        4       16       16 </v>
   <v type="int" >        2        1       13       16       16 </v>
   <v type="int" >        2        4       13       16       16 </v>
  </varray>
  <i name="volumeweight">      0.00260417 </i>
 </kpoints>
 <parameters>
  <separator name="general" >
   <i type="string" name="SYSTEM">unknown system</i>
   <i type="logical" name="LCOMPAT"> F  </i>
  </separator>
  <separator name="electronic" >
   <i type="string" name="PREC">accura</i>
   <i name="ENMAX">    500.00000000</i>
   <i name="ENAUG">    628.94500000</i>
   <i name="EDIFF">      0.00001000</i>
   <i type="int" name="IALGO">    38</i>
   <i type="int" name="IWAVPR">    11</i>
   <i type="int" name="NBANDS">   192</i>
   <i name="NELECT">    280.00000000</i>
   <i type="int" name="TURBO">     0</i>
   <i type="int" name="IRESTART">     0</i>
   <i type="int" name="NREBOOT">     0</i>
   <i type="int" name="NMIN">     0</i>
   <i name="EREF">      0.00000000</i>
   <separator name="electronic smearing" >
    <i type="int" name="ISMEAR">    -5</i>
    <i name="SIGMA">      0.05000000</i>
    <i name="KSPACING">      0.50000000</i>
    <i type="logical" name="KGAMMA"> T  </i>
   </separator>
   <separator name="electronic projectors" >
    <i type="logical" name="LREAL"> F  </i>
    <v name="ROPT">      0.00000000      0.00000000      0.00000000      0.00000000</v>
    <i type="int" name="LMAXPAW">  -100</i>
    <i type="int" name="LMAXMIX">     2</i>
    <i type="logical" name="NLSPLINE"> F  </i>
   </separator>
   <separator name="electronic startup" >
    <i type="int" name="ISTART">     0</i>
    <i type="int" name="ICHARG">     2</i>
    <i type="int" name="INIWAV">     1</i>
   </separator>
   <separator name="electronic spin" >
    <i type="int" name="ISPIN">     2</i>
    <i type="logical" name="LNONCOLLINEAR"> F  </i>
    <v name="MAGMOM">      1.00000000      1.00000000      1.00000000      1.00000000      1.00000000      1.00000000      1.00000000      1.00000000      1.00000000      1.00000000      1.00000000      1.00000000      1.00000000      1.00000000      1.00000000      1.00000000      1.00000000      1.00000000      1.00000000      1.00000000
      1.00000000      1.00000000      1.00000000      1.00000000      1.00000000      1.00000000      1.00000000      1.00000000      1.00000000      1.00000000      1.00000000      1.00000000      1.00000000      1.00000000      1.00000000      1.00000000      1.00000000      1.00000000      1.00000000      1.00000000
</v>
    <i name="NUPDOWN">     -1.00000000</i>
    <i type="logical" name="LSORBIT"> F  </i>
    <v name="SAXIS">      0.00000000      0.00000000      1.00000000</v>
    <i type="logical" name="LSPIRAL"> F  </i>
    <v name="QSPIRAL">      0.00000000      0.00000000      0.00000000</v>
    <i type="logical" name="LZEROZ"> F  </i>
   </separator>
   <separator name="electronic exchange-correlation" >
    <i type="logical" name="LASPH"> F  </i>
    <i type="logical" name="LMETAGGA"> F  </i>
   </separator>
   <separator name="electronic convergence" >
    <i type="int" name="NELM">  2000</i>
    <i type="int" name="NELMDL">     0</i>
    <i type="int" name="NELMIN">     4</i>
    <i name="ENINI">    500.00000000</i>
    <separator name="electronic convergence detail" >
     <i type="logical" name="LDIAG"> T  </i>
     <i type="logical" name="LSUBROT"> F  </i>
     <i name="WEIMIN">      0.00100000</i>
     <i name="EBREAK">      0.00000001</i>
     <i name="DEPER">      0.30000000</i>
     <i type="int" name="NRMM">     4</i>
     <i name="TIME">      0.40000000</i>
    </separator>
   </separator>
   <separator name="electronic mixer" >
    <i name="AMIX">      0.40000000</i>
    <i name="BMIX">      1.00000000</i>
    <i name="AMIN">      0.10000000</i>
    <i name="AMIX_MAG">      1.60000000</i>
    <i name="BMIX_MAG">      1.00000000</i>
    <separator name="electronic mixer details" >
     <i type="int" name="IMIX">     4</i>
     <i type="logical" name="MIXFIRST"> F  </i>
     <i type="int" name="MAXMIX">   -45</i>
     <i name="WC">    100.00000000</i>
     <i type="int" name="INIMIX">     1</i>
     <i type="int" name="MIXPRE">     1</i>
     <i type="int" name="MREMOVE">     5</i>
    </separator>
   </separator>
   <separator name="electronic dipolcorrection" >
    <i type="logical" name="LDIPOL"> F  </i>
    <i type="logical" name="LMONO"> F  </i>
    <i type="int" name="IDIPOL">     0</i>
    <i name="EPSILON">      1.00000000</i>
    <v name="DIPOL">   -100.00000000   -100.00000000   -100.00000000</v>
    <i name="EFIELD">      0.00000000</i>
   </separator>
  </separator>
  <separator name="grids" >
   <i type="int" name="NGX">    60</i>
   <i type="int" name="NGY">    56</i>
   <i type="int" name="NGZ">    56</i>
   <i type="int" name="NGXF">   120</i>
   <i type="int" name="NGYF">   112</i>
   <i type="int" name="NGZF">   112</i>
   <i type="logical" name="ADDGRID"> F  </i>
  </separator>
  <separator name="ionic" >
   <i type="int" name="NSW">     1</i>
   <i type="int" name="IBRION">     8</i>
   <i type="int" name="MDALGO">     0</i>
   <i type="int" name="ISIF">     2</i>
   <i name="PSTRESS">      0.00000000</i>
   <i name="EDIFFG">      0.00010000</i>
   <i type="int" name="NFREE">     0</i>
   <i name="POTIM">      0.50000000</i>
   <i name="SMASS">     -3.00000000</i>
   <i name="SCALEE">      1.00000000</i>
  </separator>
  <separator name="ionic md" >
   <i name="TEBEG">      0.00010000</i>
   <i name="TEEND">      0.00010000</i>
   <i type="int" name="NBLOCK">     1</i>
   <i type="int" name="KBLOCK">     1</i>
   <i type="int" name="NPACO">   256</i>
   <i name="APACO">     16.00000000</i>
  </separator>
  <separator name="symmetry" >
   <i type="int" name="ISYM">     2</i>
   <i name="SYMPREC">      0.00001000</i>
  </separator>
  <separator name="dos" >
   <i type="int" name="LORBIT">     0</i>
   <v name="RWIGS">     -1.00000000     -1.00000000     -1.00000000     -1.00000000</v>
   <i type="int" name="NEDOS">   301</i>
   <i name="EMIN">     10.00000000</i>
   <i name="EMAX">    -10.00000000</i>
   <i name="EFERMI">      0.00000000</i>
  </separator>
  <separator name="writing" >
   <i type="int" name="NWRITE">     2</i>
   <i type="logical" name="LWAVE"> T  </i>
   <i type="logical" name="LDOWNSAMPLE"> F  </i>
   <i type="logical" name="LCHARG"> T  </i>
   <i type="logical" name="LPARD"> F  </i>
   <i type="logical" name="LVTOT"> F  </i>
   <i type="logical" name="LVHAR"> F  </i>
   <i type="logical" name="LELF"> F  </i>
   <i type="logical" name="LOPTICS"> F  </i>
   <v name="STM">      0.00000000      0.00000000      0.00000000      0.00000000      0.00000000      0.00000000      0.00000000</v>
  </separator>
  <separator name="performance" >
   <i type="int" name="NPAR">    64</i>
   <i type="int" name="NSIM">     4</i>
   <i type="int" name="NBLK">    -1</i>
   <i type="logical" name="LPLANE"> T  </i>
   <i type="logical" name="LSCALAPACK"> T  </i>
   <i type="logical" name="LSCAAWARE"> F  </i>
   <i type="logical" name="LSCALU"> F  </i>
   <i type="logical" name="LASYNC"> F  </i>
   <i type="logical" name="LORBITALREAL"> F  </i>
  </separator>
  <separator name="miscellaneous" >
   <i type="int" name="IDIOT">     3</i>
   <i type="int" name="ISPECIAL">     0</i>
   <i type="logical" name="LMUSIC"> F  </i>
   <v name="POMASS">    138.90000000      7.01000000     47.88000000     16.00000000</v>
   <v name="DARWINR">      0.00000000      0.00000000      0.00000000      0.00000000</v>
   <v name="DARWINV">      1.00000000      1.00000000      1.00000000      1.00000000</v>
   <i type="logical" name="LCORR"> T  </i>
  </separator>
  <i type="logical" name="GGA_COMPAT"> T  </i>
  <i type="logical" name="LBERRY"> F  </i>
  <i type="int" name="ICORELEVEL">     0</i>
  <i type="logical" name="LDAU"> F  </i>
  <i type="int" name="I_CONSTRAINED_M">     0</i>
  <separator name="electronic exchange-correlation" >
   <i type="string" name="GGA">--</i>
   <i type="int" name="VOSKOWN">     0</i>
   <i type="logical" name="LHFCALC"> F  </i>
   <i type="string" name="PRECFOCK"></i>
   <i type="logical" name="LSYMGRAD"> F  </i>
   <i type="logical" name="LHFONE"> F  </i>
   <i type="logical" name="LRHFCALC"> F  </i>
   <i type="logical" name="LTHOMAS"> F  </i>
   <i type="logical" name="LMODELHF"> F  </i>
   <i name="ENCUT4O">     -1.00000000</i>
   <i type="int" name="EXXOEP">     0</i>
   <i type="int" name="FOURORBIT">     0</i>
   <i name="AEXX">      0.00000000</i>
   <i name="HFALPHA">      0.00000000</i>
   <i name="MCALPHA">      0.00000000</i>
   <i name="ALDAX">      1.00000000</i>
   <i name="AGGAX">      1.00000000</i>
   <i name="ALDAC">      1.00000000</i>
   <i name="AGGAC">      1.00000000</i>
   <i type="int" name="NKREDX">     1</i>
   <i type="int" name="NKREDY">     1</i>
   <i type="int" name="NKREDZ">     1</i>
   <i type="logical" name="SHIFTRED"> F  </i>
   <i type="logical" name="ODDONLY"> F  </i>
   <i type="logical" name="EVENONLY"> F  </i>
   <i type="int" name="LMAXFOCK">     0</i>
   <i type="int" name="NMAXFOCKAE">     0</i>
   <i type="logical" name="LFOCKAEDFT"> F  </i>
   <i name="HFSCREEN">      0.00000000</i>
   <i name="HFSCREENC">      0.00000000</i>
   <i type="int" name="NBANDSGWLOW">     0</i>
  </separator>
  <separator name="vdW DFT" >
   <i type="logical" name="LUSE_VDW"> F  </i>
   <i name="Zab_VDW">     -0.84910000</i>
   <i name="PARAM1">      0.12340000</i>
   <i name="PARAM2">      1.00000000</i>
   <i name="PARAM3">      0.00000000</i>
  </separator>
  <separator name="model GW" >
   <i type="int" name="MODEL_GW">     0</i>
   <i name="MODEL_EPS0">      7.01021246</i>
   <i name="MODEL_ALPHA">      1.00000000</i>
  </separator>
  <separator name="linear response parameters" >
   <i type="logical" name="LEPSILON"> F  </i>
   <i type="logical" name="LRPA"> F  </i>
   <i type="logical" name="LNABLA"> F  </i>
   <i type="logical" name="LVEL"> F  </i>
   <i type="int" name="KINTER">     0</i>
   <i name="CSHIFT">      0.10000000</i>
   <i name="OMEGAMAX">     -1.00000000</i>
   <i name="DEG_THRESHOLD">      0.00200000</i>
   <i name="RTIME">     -0.10000000</i>
   <i name="WPLASMAI">      0.00000000</i>
   <v name="DFIELD">      0.00000000      0.00000000      0.00000000</v>
   <v name="WPLASMA">      0.00000000      0.00000000      0.00000000      0.00000000      0.00000000      0.00000000      0.00000000      0.00000000      0.00000000</v>
  </separator>
  <separator name="orbital magnetization" >
   <i type="logical" name="NUCIND"> F  </i>
   <v name="MAGPOS">      0.00000000      0.00000000      0.00000000</v>
   <i type="logical" name="LNICSALL"> T  </i>
   <i type="logical" name="ORBITALMAG"> F  </i>
   <i type="logical" name="LMAGBLOCH"> F  </i>
   <i type="logical" name="LCHIMAG"> F  </i>
   <i type="logical" name="LGAUGE"> T  </i>
   <i type="int" name="MAGATOM">     0</i>
   <v name="MAGDIPOL">      0.00000000      0.00000000      0.00000000</v>
   <v name="AVECCONST">      0.00000000      0.00000000      0.00000000</v>
  </separator>
  <separator name="response functions" >
   <i type="logical" name="LADDER"> F  </i>
   <i type="logical" name="LRPAFORCE"> F  </i>
   <i type="logical" name="LFXC"> F  </i>
   <i type="logical" name="LHARTREE"> T  </i>
   <i type="int" name="IBSE">     0</i>
   <v type="int" name="KPOINT">    -1     0     0     0</v>
   <i type="logical" name="LTCTE"> F  </i>
   <i type="logical" name="LTETE"> F  </i>
   <i type="logical" name="LTRIPLET"> F  </i>
   <i type="logical" name="LFXCEPS"> F  </i>
   <i type="logical" name="LFXHEG"> F  </i>
   <i type="int" name="NATURALO">     2</i>
   <i type="logical" name="L2ORDER"> F  </i>
   <i type="logical" name="LMP2LT"> F  </i>
   <i type="logical" name="LUSEW"> F  </i>
   <i name="ENCUTGW">     -2.00000000</i>
   <i name="ENCUTGWSOFT">     -2.00000000</i>
   <i name="ENCUTLF">     -1.00000000</i>
   <i type="int" name="LMAXMP2">    -1</i>
   <i name="SCISSOR">      0.00000000</i>
   <i type="int" name="NOMEGA">     0</i>
   <i type="int" name="NOMEGAR">     0</i>
   <i type="int" name="NBANDSGW">    -1</i>
   <i type="int" name="NBANDSO">    -1</i>
   <i type="int" name="NBANDSV">    -1</i>
   <i type="int" name="NELM">  2000</i>
   <i type="int" name="NELMHF">     1</i>
   <i type="int" name="DIM">     3</i>
   <i type="int" name="ANTIRES">     0</i>
   <i name="OMEGAMAX">    -30.00000000</i>
   <i name="OMEGAMIN">    -30.00000000</i>
   <i name="OMEGATL">   -200.00000000</i>
   <i type="int" name="OMEGAGRID">   140</i>
   <i name="CSHIFT">     -0.10000000</i>
   <i type="logical" name="SELFENERGY"> F  </i>
   <i type="logical" name="LSPECTRAL"> F  </i>
   <i type="logical" name="LSPECTRALGW"> F  </i>
   <i type="logical" name="LSINGLES"> F  </i>
   <i type="logical" name="LFERMIGW"> F  </i>
   <i type="logical" name="ODDONLYGW"> F  </i>
   <i type="logical" name="EVENONLYGW"> F  </i>
   <i type="int" name="NKREDLFX">     1</i>
   <i type="int" name="NKREDLFY">     1</i>
   <i type="int" name="NKREDLFZ">     1</i>
   <i type="int" name="MAXMEM">  2800</i>
   <i type="int" name="TELESCOPE">     0</i>
   <i type="int" name="TAUPAR">     1</i>
   <i type="int" name="OMEGAPAR">    -1</i>
   <i name="LAMBDA">      1.00000000</i>
  </separator>
  <separator name="External order field" >
   <i name="OFIELD_KAPPA">      0.00000000</i>
   <v name="OFIELD_K">      0.00000000      0.00000000      0.00000000</v>
   <i name="OFIELD_Q6_NEAR">      0.00000000</i>
   <i name="OFIELD_Q6_FAR">      0.00000000</i>
   <i name="OFIELD_A">      0.00000000</i>
  </separator>
 </parameters>
 <atominfo>
  <atoms>      40 </atoms>
  <types>       4 </types>
  <array name="atoms" >
   <dimension dim="1">ion</dimension>
   <field type="string">element</field>
   <field type="int">atomtype</field>
   <set>
    <rc><c>La</c><c>   1</c></rc>
    <rc><c>La</c><c>   1</c></rc>
    <rc><c>La</c><c>   1</c></rc>
    <rc><c>La</c><c>   1</c></rc>
    <rc><c>Li</c><c>   2</c></rc>
    <rc><c>Li</c><c>   2</c></rc>
    <rc><c>Li</c><c>   2</c></rc>
    <rc><c>Li</c><c>   2</c></rc>
    <rc><c>Ti</c><c>   3</c></rc>
    <rc><c>Ti</c><c>   3</c></rc>
    <rc><c>Ti</c><c>   3</c></rc>
    <rc><c>Ti</c><c>   3</c></rc>
    <rc><c>Ti</c><c>   3</c></rc>
    <rc><c>Ti</c><c>   3</c></rc>
    <rc><c>Ti</c><c>   3</c></rc>
    <rc><c>Ti</c><c>   3</c></rc>
    <rc><c>O </c><c>   4</c></rc>
    <rc><c>O </c><c>   4</c></rc>
    <rc><c>O </c><c>   4</c></rc>
    <rc><c>O </c><c>   4</c></rc>
    <rc><c>O </c><c>   4</c></rc>
    <rc><c>O </c><c>   4</c></rc>
    <rc><c>O </c><c>   4</c></rc>
    <rc><c>O </c><c>   4</c></rc>
    <rc><c>O </c><c>   4</c></rc>
    <rc><c>O </c><c>   4</c></rc>
    <rc><c>O </c><c>   4</c></rc>
    <rc><c>O </c><c>   4</c></rc>
    <rc><c>O </c><c>   4</c></rc>
    <rc><c>O </c><c>   4</c></rc>
    <rc><c>O </c><c>   4</c></rc>
    <rc><c>O </c><c>   4</c></rc>
    <rc><c>O </c><c>   4</c></rc>
    <rc><c>O </c><c>   4</c></rc>
    <rc><c>O </c><c>   4</c></rc>
    <rc><c>O </c><c>   4</c></rc>
    <rc><c>O </c><c>   4</c></rc>
    <rc><c>O </c><c>   4</c></rc>
    <rc><c>O </c><c>   4</c></rc>
    <rc><c>O </c><c>   4</c></rc>
   </set>
  </array>
  <array name="atomtypes" >
   <dimension dim="1">type</dimension>
   <field type="int">atomspertype</field>
   <field type="string">element</field>
   <field>mass</field>
   <field>valence</field>
   <field type="string">pseudopotential</field>
   <set>
    <rc><c>   4</c><c>La</c><c>    138.90000000</c><c>     11.00000000</c><c>  PAW_PBE La 06Sep2000                  </c></rc>
    <rc><c>   4</c><c>Li</c><c>      7.01000000</c><c>      3.00000000</c><c>  PAW_PBE Li_sv 10Sep2004               </c></rc>
    <rc><c>   8</c><c>Ti</c><c>     47.88000000</c><c>     10.00000000</c><c>  PAW_PBE Ti_pv 07Sep2000               </c></rc>
    <rc><c>  24</c><c>O </c><c>     16.00000000</c><c>      6.00000000</c><c>  PAW_PBE O_s 07Sep2000                 </c></rc>
   </set>
  </array>
 </atominfo>
 <structure name="initialpos" >
  <crystal>
   <varray name="basis" >
    <v>       7.85863038       0.00005142      -0.13760597 </v>
    <v>       0.00005109       7.69057214       0.00001816 </v>
    <v>      -0.13792247       0.00001857       7.73517286 </v>
   </varray>
   <i name="volume">    467.34749763 </i>
   <varray name="rec_basis" >
    <v>       0.12728838      -0.00000085       0.00226962 </v>
    <v>      -0.00000086       0.13002934      -0.00000033 </v>
    <v>       0.00226441      -0.00000032       0.12931997 </v>
   </varray>
  </crystal>
  <varray name="positions" >
   <v>       0.00912359       0.00022486       0.49738218 </v>
   <v>       0.97308282       0.50023065       0.01052307 </v>
   <v>       0.99030649       0.50024541       0.51716542 </v>
   <v>       0.47823377       0.50024017       0.51786741 </v>
   <v>       0.92191143       0.00021596       0.04600415 </v>
   <v>       0.45153384       0.00022071       0.09088344 </v>
   <v>       0.43264542       0.00021380       0.54985982 </v>
   <v>       0.51493698       0.50003706       0.99070923 </v>
   <v>       0.24151311       0.24301026       0.24899601 </v>
   <v>       0.26033041       0.24368524       0.77937056 </v>
   <v>       0.24150012       0.75741154       0.24898876 </v>
   <v>       0.26034076       0.75676197       0.77938282 </v>
   <v>       0.72516282       0.24561075       0.24834576 </v>
   <v>       0.73525850       0.23598540       0.75544915 </v>
   <v>       0.72515605       0.75485446       0.24834770 </v>
   <v>       0.73524943       0.76447328       0.75546048 </v>
   <v>       0.30360012       0.20303658       0.00837409 </v>
   <v>       0.00716727       0.20491996       0.21116991 </v>
   <v>       0.28956278       0.00024788       0.31184933 </v>
   <v>       0.22467983       0.29163475       0.49853915 </v>
   <v>       0.02280387       0.29259176       0.77632169 </v>
   <v>       0.23366687       0.00024007       0.71051331 </v>
   <v>       0.30357570       0.79747154       0.00838388 </v>
   <v>       0.00716643       0.79557052       0.21117901 </v>
   <v>       0.21069832       0.50025358       0.21560191 </v>
   <v>       0.22467437       0.70885604       0.49854067 </v>
   <v>       0.02280738       0.70787740       0.77632315 </v>
   <v>       0.31925959       0.50023735       0.79317702 </v>
   <v>       0.72510369       0.29462099       0.99208011 </v>
   <v>       0.50327607       0.29199960       0.28039855 </v>
   <v>       0.70884464       0.00024379       0.20378457 </v>
   <v>       0.79875608       0.22614079       0.49252218 </v>
   <v>       0.51045949       0.21443309       0.69587119 </v>
   <v>       0.81073170       0.00023852       0.78209126 </v>
   <v>       0.72513637       0.70588076       0.99208849 </v>
   <v>       0.50327097       0.70851199       0.28042108 </v>
   <v>       0.79514708       0.50024336       0.27043005 </v>
   <v>       0.79875657       0.77433563       0.49252258 </v>
   <v>       0.51045585       0.78604113       0.69587414 </v>
   <v>       0.73705744       0.50024241       0.70666370 </v>
  </varray>
 </structure>
 <calculation>
  <scstep>
   <time name="dav">   25.44   25.45</time>
   <time name="total">   25.60   25.61</time>
   <energy>
    <i name="alphaZ">   1092.96793109 </i>
    <i name="ewald"> -17541.57553962 </i>
    <i name="hartreedc">  -5349.16422900 </i>
    <i name="XCdc">   1131.02584064 </i>
    <i name="pawpsdc">  17700.23480859 </i>
    <i name="pawaedc"> -17854.15814791 </i>
    <i name="eentropy">      0.00000000 </i>
    <i name="bandstr">    481.43536270 </i>
    <i name="atom">  22992.69823266 </i>
    <i name="e_fr_energy">   2653.46425914 </i>
    <i name="e_wo_entrp">   2653.46425914 </i>
    <i name="e_0_energy">   2653.46425914 </i>
   </energy>
  </scstep>
  <scstep>
   <time name="dav">   21.99   22.00</time>
   <time name="total">   22.10   22.11</time>
   <energy>
    <i name="e_fr_energy">    -13.11709026 </i>
    <i name="e_wo_entrp">    -13.11709026 </i>
    <i name="e_0_energy">    -13.11709026 </i>
   </energy>
  </scstep>
  <scstep>
   <time name="dav">   25.83   25.83</time>
   <time name="total">   25.84   25.85</time>
   <energy>
    <i name="e_fr_energy">   -376.62876951 </i>
    <i name="e_wo_entrp">   -376.62876951 </i>
    <i name="e_0_energy">   -376.62876951 </i>
   </energy>
  </scstep>
  <scstep>
   <time name="dav">   47.99   48.01</time>
   <time name="total">   48.01   48.02</time>
   <energy>
    <i name="e_fr_energy">   -399.49698983 </i>
    <i name="e_wo_entrp">   -399.49698983 </i>
    <i name="e_0_energy">   -399.49698983 </i>
   </energy>
  </scstep>
  <scstep>
   <time name="dav">   24.89   24.90</time>
   <time name="total">   25.55   25.56</time>
   <energy>
    <i name="e_fr_energy">   -400.41832047 </i>
    <i name="e_wo_entrp">   -400.41832047 </i>
    <i name="e_0_energy">   -400.41832047 </i>
   </energy>
  </scstep>
  <scstep>
   <time name="dav">   33.44   33.45</time>
   <time name="total">   34.15   34.16</time>
   <energy>
    <i name="e_fr_energy">   -322.27193011 </i>
    <i name="e_wo_entrp">   -322.27193011 </i>
    <i name="e_0_energy">   -322.27193011 </i>
   </energy>
  </scstep>
  <scstep>
   <time name="dav">   31.29   31.29</time>
   <time name="total">   31.99   32.00</time>
   <energy>
    <i name="e_fr_energy">   -329.62815740 </i>
    <i name="e_wo_entrp">   -329.62815740 </i>
    <i name="e_0_energy">   -329.62815740 </i>
   </energy>
  </scstep>
  <scstep>
   <time name="dav">   39.64   39.64</time>
   <time name="total">   40.35   40.36</time>
   <energy>
    <i name="e_fr_energy">   -332.20283351 </i>
    <i name="e_wo_entrp">   -332.20283351 </i>
    <i name="e_0_energy">   -332.20283351 </i>
   </energy>
  </scstep>
  <scstep>
   <time name="dav">   29.55   29.56</time>
   <time name="total">   30.25   30.26</time>
   <energy>
    <i name="e_fr_energy">   -330.88132718 </i>
    <i name="e_wo_entrp">   -330.88132718 </i>
    <i name="e_0_energy">   -330.88132718 </i>
   </energy>
  </scstep>
  <scstep>
   <time name="dav">   36.05   36.06</time>
   <time name="total">   36.77   36.78</time>
   <energy>
    <i name="e_fr_energy">   -330.72643544 </i>
    <i name="e_wo_entrp">   -330.72643544 </i>
    <i name="e_0_energy">   -330.72643544 </i>
   </energy>
  </scstep>
  <scstep>
   <time name="dav">   34.78   34.79</time>
   <time name="total">   35.49   35.49</time>
   <energy>
    <i name="e_fr_energy">   -330.67263133 </i>
    <i name="e_wo_entrp">   -330.67263133 </i>
    <i name="e_0_energy">   -330.67263133 </i>
   </energy>
  </scstep>
  <scstep>
   <time name="dav">   44.45   44.46</time>
   <time name="total">   45.16   45.18</time>
   <energy>
    <i name="e_fr_energy">   -330.67075315 </i>
    <i name="e_wo_entrp">   -330.67075315 </i>
    <i name="e_0_energy">   -330.67075315 </i>
   </energy>
  </scstep>
  <scstep>
   <time name="dav">   24.67   24.67</time>
   <time name="total">   25.37   25.38</time>
   <energy>
    <i name="e_fr_energy">   -330.67388744 </i>
    <i name="e_wo_entrp">   -330.67388744 </i>
    <i name="e_0_energy">   -330.67388744 </i>
   </energy>
  </scstep>
  <scstep>
   <time name="dav">   33.62   33.62</time>
   <time name="total">   34.32   34.34</time>
   <energy>
    <i name="e_fr_energy">   -330.67487977 </i>
    <i name="e_wo_entrp">   -330.67487977 </i>
    <i name="e_0_energy">   -330.67487977 </i>
   </energy>
  </scstep>
  <scstep>
   <time name="dav">   35.20   35.21</time>
   <time name="total">   35.91   35.92</time>
   <energy>
    <i name="e_fr_energy">   -330.67517148 </i>
    <i name="e_wo_entrp">   -330.67517148 </i>
    <i name="e_0_energy">   -330.67517148 </i>
   </energy>
  </scstep>
  <scstep>
   <time name="dav">   33.69   33.69</time>
   <time name="total">   34.40   34.41</time>
   <energy>
    <i name="e_fr_energy">   -330.67523945 </i>
    <i name="e_wo_entrp">   -330.67523945 </i>
    <i name="e_0_energy">   -330.67523945 </i>
   </energy>
  </scstep>
  <scstep>
   <time name="dav">   21.87   21.88</time>
   <time name="total">   22.58   22.58</time>
   <energy>
    <i name="e_fr_energy">   -330.67527092 </i>
    <i name="e_wo_entrp">   -330.67527092 </i>
    <i name="e_0_energy">   -330.67527092 </i>
   </energy>
  </scstep>
  <scstep>
   <time name="dav">   27.31   27.31</time>
   <time name="total">   27.37   27.37</time>
   <energy>
    <i name="alphaZ">   1092.96793109 </i>
    <i name="ewald"> -17541.57553962 </i>
    <i name="hartreedc">  -5416.85999250 </i>
    <i name="XCdc">   1138.32101506 </i>
    <i name="pawpsdc">  35695.73451794 </i>
    <i name="pawaedc"> -35912.34206688 </i>
    <i name="eentropy">      0.00000000 </i>
    <i name="bandstr">  -2379.61937469 </i>
    <i name="atom">  22992.69823266 </i>
    <i name="e_fr_energy">   -330.67527694 </i>
    <i name="e_wo_entrp">   -330.67527694 </i>
    <i name="e_0_energy">   -330.67527694 </i>
   </energy>
  </scstep>
  <structure>
   <crystal>
    <varray name="basis" >
     <v>       7.85863038       0.00005142      -0.13760597 </v>
     <v>       0.00005109       7.69057214       0.00001816 </v>
     <v>      -0.13792247       0.00001857       7.73517286 </v>
    </varray>
    <i name="volume">    467.34749763 </i>
    <varray name="rec_basis" >
     <v>       0.12728838      -0.00000085       0.00226962 </v>
     <v>      -0.00000086       0.13002934      -0.00000033 </v>
     <v>       0.00226441      -0.00000032       0.12931997 </v>
    </varray>
   </crystal>
   <varray name="positions" >
    <v>       0.00912359       0.00022486       0.49738218 </v>
    <v>       0.97308282       0.50023065       0.01052307 </v>
    <v>       0.99030649       0.50024541       0.51716542 </v>
    <v>       0.47823377       0.50024017       0.51786741 </v>
    <v>       0.92191143       0.00021596       0.04600415 </v>
    <v>       0.45153384       0.00022071       0.09088344 </v>
    <v>       0.43264542       0.00021380       0.54985982 </v>
    <v>       0.51493698       0.50003706       0.99070923 </v>
    <v>       0.24151311       0.24301026       0.24899601 </v>
    <v>       0.26033041       0.24368524       0.77937056 </v>
    <v>       0.24150012       0.75741154       0.24898876 </v>
    <v>       0.26034076       0.75676197       0.77938282 </v>
    <v>       0.72516282       0.24561075       0.24834576 </v>
    <v>       0.73525850       0.23598540       0.75544915 </v>
    <v>       0.72515605       0.75485446       0.24834770 </v>
    <v>       0.73524943       0.76447328       0.75546048 </v>
    <v>       0.30360012       0.20303658       0.00837409 </v>
    <v>       0.00716727       0.20491996       0.21116991 </v>
    <v>       0.28956278       0.00024788       0.31184933 </v>
    <v>       0.22467983       0.29163475       0.49853915 </v>
    <v>       0.02280387       0.29259176       0.77632169 </v>
    <v>       0.23366687       0.00024007       0.71051331 </v>
    <v>       0.30357570       0.79747154       0.00838388 </v>
    <v>       0.00716643       0.79557052       0.21117901 </v>
    <v>       0.21069832       0.50025358       0.21560191 </v>
    <v>       0.22467437       0.70885604       0.49854067 </v>
    <v>       0.02280738       0.70787740       0.77632315 </v>
    <v>       0.31925959       0.50023735       0.79317702 </v>
    <v>       0.72510369       0.29462099       0.99208011 </v>
    <v>       0.50327607       0.29199960       0.28039855 </v>
    <v>       0.70884464       0.00024379       0.20378457 </v>
    <v>       0.79875608       0.22614079       0.49252218 </v>
    <v>       0.51045949       0.21443309       0.69587119 </v>
    <v>       0.81073170       0.00023852       0.78209126 </v>
    <v>       0.72513637       0.70588076       0.99208849 </v>
    <v>       0.50327097       0.70851199       0.28042108 </v>
    <v>       0.79514708       0.50024336       0.27043005 </v>
    <v>       0.79875657       0.77433563       0.49252258 </v>
    <v>       0.51045585       0.78604113       0.69587414 </v>
    <v>       0.73705744       0.50024241       0.70666370 </v>
   </varray>
  </structure>
  <varray name="forces" >
   <v>      -0.01696215       0.00031986      -0.00699390 </v>
   <v>       0.00397390       0.00028317       0.00290580 </v>
   <v>      -0.00009108      -0.00058006      -0.00851930 </v>
   <v>      -0.00141858      -0.00032221      -0.00403602 </v>
   <v>       0.00785829      -0.00008094       0.00119425 </v>
   <v>       0.00539849      -0.00009472       0.00868613 </v>
   <v>       0.00179749       0.00013396      -0.00746301 </v>
   <v>      -0.01954079      -0.00007840       0.01318601 </v>
   <v>      -0.00514820       0.00158947      -0.00314436 </v>
   <v>       0.00132901       0.00411480       0.00837557 </v>
   <v>      -0.00491822      -0.00144930      -0.00449855 </v>
   <v>       0.00140104      -0.00372281       0.01045140 </v>
   <v>       0.00677238      -0.00247631       0.01043692 </v>
   <v>      -0.00277491      -0.00624980      -0.00754645 </v>
   <v>       0.00674024       0.00243287       0.01004001 </v>
   <v>      -0.00224419       0.00610979      -0.00699321 </v>
   <v>      -0.00345703       0.00429168      -0.00847083 </v>
   <v>       0.01090423       0.00272071       0.00666823 </v>
   <v>       0.00642225       0.00025440      -0.00247578 </v>
   <v>      -0.00562035       0.00064889      -0.00095049 </v>
   <v>       0.00446291       0.00153272      -0.00040352 </v>
   <v>      -0.00352496      -0.00027320      -0.00493572 </v>
   <v>      -0.00376909      -0.00450696      -0.00997093 </v>
   <v>       0.01073202      -0.00272682       0.00687640 </v>
   <v>      -0.00110845      -0.00024321      -0.00249345 </v>
   <v>      -0.00555146      -0.00056714      -0.00022892 </v>
   <v>       0.00477476      -0.00144816      -0.00057126 </v>
   <v>      -0.00329884       0.00017081      -0.00336139 </v>
   <v>       0.00000524       0.00235567       0.00474589 </v>
   <v>       0.00208045       0.00144903      -0.00178041 </v>
   <v>      -0.00155491       0.00005263      -0.00054688 </v>
   <v>      -0.00088954       0.00006132      -0.00393496 </v>
   <v>       0.00017338      -0.00076523       0.00052688 </v>
   <v>       0.00395318      -0.00004769       0.00344509 </v>
   <v>       0.00006807      -0.00231897       0.00462577 </v>
   <v>       0.00216434      -0.00150567      -0.00157276 </v>
   <v>      -0.00063686       0.00001627      -0.00159071 </v>
   <v>      -0.00090150      -0.00000187      -0.00384760 </v>
   <v>      -0.00027850       0.00087391       0.00033333 </v>
   <v>       0.00267793       0.00004752       0.00383275 </v>
  </varray>
  <varray name="stress" >
   <v>      -0.06841421      -0.00091187      -0.42569058 </v>
   <v>      -0.00091155      -0.37796143      -0.00105956 </v>
   <v>      -0.42569035      -0.00105947      -0.30477782 </v>
  </varray>
  <energy>
   <i name="e_fr_energy">   -330.67527694 </i>
   <i name="e_wo_entrp">   -330.67527694 </i>
   <i name="e_0_energy">      0.00000000 </i>
  </energy>
  <kpoints>
   <generation param="Monkhorst-Pack">
    <v type="int" name="divisions">       4        4        4 </v>
    <v name="usershift">      0.00000000       0.00000000       0.00000000 </v>
    <v name="genvec1">      0.25000000       0.00000000      -0.00000000 </v>
    <v name="genvec2">      0.00000000       0.25000000       0.00000000 </v>
    <v name="genvec3">      0.00000000       0.00000000       0.25000000 </v>
    <v name="shift">      0.50000000       0.50000000       0.50000000 </v>
   </generation>
   <varray name="kpointlist" >
    <v>       0.12500000       0.12500000       0.12500000 </v>
    <v>       0.37500000       0.12500000       0.12500000 </v>
    <v>      -0.37500000       0.12500000       0.12500000 </v>
    <v>      -0.12500000       0.12500000       0.12500000 </v>
    <v>       0.12500000       0.37500000       0.12500000 </v>
    <v>       0.37500000       0.37500000       0.12500000 </v>
    <v>      -0.37500000       0.37500000       0.12500000 </v>
    <v>      -0.12500000       0.37500000       0.12500000 </v>
    <v>       0.12500000      -0.37500000       0.12500000 </v>
    <v>       0.37500000      -0.37500000       0.12500000 </v>
    <v>      -0.37500000      -0.37500000       0.12500000 </v>
    <v>      -0.12500000      -0.37500000       0.12500000 </v>
    <v>       0.12500000      -0.12500000       0.12500000 </v>
    <v>       0.37500000      -0.12500000       0.12500000 </v>
    <v>      -0.37500000      -0.12500000       0.12500000 </v>
    <v>      -0.12500000      -0.12500000       0.12500000 </v>
    <v>       0.12500000       0.12500000       0.37500000 </v>
    <v>       0.37500000       0.12500000       0.37500000 </v>
    <v>      -0.37500000       0.12500000       0.37500000 </v>
    <v>      -0.12500000       0.12500000       0.37500000 </v>
    <v>       0.12500000       0.37500000       0.37500000 </v>
    <v>       0.37500000       0.37500000       0.37500000 </v>
    <v>      -0.37500000       0.37500000       0.37500000 </v>
    <v>      -0.12500000       0.37500000       0.37500000 </v>
    <v>       0.12500000      -0.37500000       0.37500000 </v>
    <v>       0.37500000      -0.37500000       0.37500000 </v>
    <v>      -0.37500000      -0.37500000       0.37500000 </v>
    <v>      -0.12500000      -0.37500000       0.37500000 </v>
    <v>       0.12500000      -0.12500000       0.37500000 </v>
    <v>       0.37500000      -0.12500000       0.37500000 </v>
    <v>      -0.37500000      -0.12500000       0.37500000 </v>
    <v>      -0.12500000      -0.12500000       0.37500000 </v>
   </varray>
   <varray name="weights" >
    <v>       0.03125000 </v>
    <v>       0.03125000 </v>
    <v>       0.03125000 </v>
    <v>       0.03125000 </v>
    <v>       0.03125000 </v>
    <v>       0.03125000 </v>
    <v>       0.03125000 </v>
    <v>       0.03125000 </v>
    <v>       0.03125000 </v>
    <v>       0.03125000 </v>
    <v>       0.03125000 </v>
    <v>       0.03125000 </v>
    <v>       0.03125000 </v>
    <v>       0.03125000 </v>
    <v>       0.03125000 </v>
    <v>       0.03125000 </v>
    <v>       0.03125000 </v>
    <v>       0.03125000 </v>
    <v>       0.03125000 </v>
    <v>       0.03125000 </v>
    <v>       0.03125000 </v>
    <v>       0.03125000 </v>
    <v>       0.03125000 </v>
    <v>       0.03125000 </v>
    <v>       0.03125000 </v>
    <v>       0.03125000 </v>
    <v>       0.03125000 </v>
    <v>       0.03125000 </v>
    <v>       0.03125000 </v>
    <v>       0.03125000 </v>
    <v>       0.03125000 </v>
    <v>       0.03125000 </v>
   </varray>
   <varray name="tetrahedronlist"  type="int" >
    <v type="int" >        2        1        2        6       17 </v>
    <v type="int" >        2        1        5        6       17 </v>
    <v type="int" >        2        5        6       17       21 </v>
    <v type="int" >        2        2        6       17       18 </v>
    <v type="int" >        2        6       17       18       22 </v>
    <v type="int" >        2        6       17       21       22 </v>
    <v type="int" >        2        2        3        7       18 </v>
    <v type="int" >        2        2        6        7       18 </v>
    <v type="int" >        2        6        7       18       22 </v>
    <v type="int" >        2        3        7       18       19 </v>
    <v type="int" >        2        7       18       19       23 </v>
    <v type="int" >        2        7       18       22       23 </v>
    <v type="int" >        2        3        4        8       19 </v>
    <v type="int" >        2        3        7        8       19 </v>
    <v type="int" >        2        7        8       19       23 </v>
    <v type="int" >        2        4        8       19       20 </v>
    <v type="int" >        2        8       19       20       24 </v>
    <v type="int" >        2        8       19       23       24 </v>
    <v type="int" >        2        1        4        5       20 </v>
    <v type="int" >        2        4        5        8       20 </v>
    <v type="int" >        2        5        8       20       24 </v>
    <v type="int" >        2        1        5       17       20 </v>
    <v type="int" >        2        5       17       20       21 </v>
    <v type="int" >        2        5       20       21       24 </v>
    <v type="int" >        2        5        6       10       21 </v>
    <v type="int" >        2        5        9       10       21 </v>
    <v type="int" >        2        9       10       21       25 </v>
    <v type="int" >        2        6       10       21       22 </v>
    <v type="int" >        2       10       21       22       26 </v>
    <v type="int" >        2       10       21       25       26 </v>
    <v type="int" >        2        6        7       11       22 </v>
    <v type="int" >        2        6       10       11       22 </v>
    <v type="int" >        2       10       11       22       26 </v>
    <v type="int" >        2        7       11       22       23 </v>
    <v type="int" >        2       11       22       23       27 </v>
    <v type="int" >        2       11       22       26       27 </v>
    <v type="int" >        2        7        8       12       23 </v>
    <v type="int" >        2        7       11       12       23 </v>
    <v type="int" >        2       11       12       23       27 </v>
    <v type="int" >        2        8       12       23       24 </v>
    <v type="int" >        2       12       23       24       28 </v>
    <v type="int" >        2       12       23       27       28 </v>
    <v type="int" >        2        5        8        9       24 </v>
    <v type="int" >        2        8        9       12       24 </v>
    <v type="int" >        2        9       12       24       28 </v>
    <v type="int" >        2        5        9       21       24 </v>
    <v type="int" >        2        9       21       24       25 </v>
    <v type="int" >        2        9       24       25       28 </v>
    <v type="int" >        2        9       10       14       25 </v>
    <v type="int" >        2        9       13       14       25 </v>
    <v type="int" >        2       13       14       25       29 </v>
    <v type="int" >        2       10       14       25       26 </v>
    <v type="int" >        2       14       25       26       30 </v>
    <v type="int" >        2       14       25       29       30 </v>
    <v type="int" >        2       10       11       15       26 </v>
    <v type="int" >        2       10       14       15       26 </v>
    <v type="int" >        2       14       15       26       30 </v>
    <v type="int" >        2       11       15       26       27 </v>
    <v type="int" >        2       15       26       27       31 </v>
    <v type="int" >        2       15       26       30       31 </v>
    <v type="int" >        2       11       12       16       27 </v>
    <v type="int" >        2       11       15       16       27 </v>
    <v type="int" >        2       15       16       27       31 </v>
    <v type="int" >        2       12       16       27       28 </v>
    <v type="int" >        2       16       27       28       32 </v>
    <v type="int" >        2       16       27       31       32 </v>
    <v type="int" >        2        9       12       13       28 </v>
    <v type="int" >        2       12       13       16       28 </v>
    <v type="int" >        2       13       16       28       32 </v>
    <v type="int" >        2        9       13       25       28 </v>
    <v type="int" >        2       13       25       28       29 </v>
    <v type="int" >        2       13       28       29       32 </v>
    <v type="int" >        2        2       13       14       29 </v>
    <v type="int" >        2        1        2       13       29 </v>
    <v type="int" >        2        1        2       17       29 </v>
    <v type="int" >        2        2       14       29       30 </v>
    <v type="int" >        2        2       18       29       30 </v>
    <v type="int" >        2        2       17       18       29 </v>
    <v type="int" >        2        3       14       15       30 </v>
    <v type="int" >        2        2        3       14       30 </v>
    <v type="int" >        2        2        3       18       30 </v>
    <v type="int" >        2        3       15       30       31 </v>
    <v type="int" >        2        3       19       30       31 </v>
    <v type="int" >        2        3       18       19       30 </v>
    <v type="int" >        2        4       15       16       31 </v>
    <v type="int" >        2        3        4       15       31 </v>
    <v type="int" >        2        3        4       19       31 </v>
    <v type="int" >        2        4       16       31       32 </v>
    <v type="int" >        2        4       20       31       32 </v>
    <v type="int" >        2        4       19       20       31 </v>
    <v type="int" >        2        1       13       16       32 </v>
    <v type="int" >        2        1        4       16       32 </v>
    <v type="int" >        2        1        4       20       32 </v>
    <v type="int" >        2        1       13       29       32 </v>
    <v type="int" >        2        1       17       29       32 </v>
    <v type="int" >        2        1       17       20       32 </v>
    <v type="int" >        2       17       18       22       32 </v>
    <v type="int" >        2       17       21       22       32 </v>
    <v type="int" >        2       21       22       28       32 </v>
    <v type="int" >        2       18       22       31       32 </v>
    <v type="int" >        2       22       27       31       32 </v>
    <v type="int" >        2       22       27       28       32 </v>
    <v type="int" >        2       18       19       23       31 </v>
    <v type="int" >        2       18       22       23       31 </v>
    <v type="int" >        2       22       23       27       31 </v>
    <v type="int" >        2       19       23       30       31 </v>
    <v type="int" >        2       23       26       30       31 </v>
    <v type="int" >        2       23       26       27       31 </v>
    <v type="int" >        2       19       20       24       30 </v>
    <v type="int" >        2       19       23       24       30 </v>
    <v type="int" >        2       23       24       26       30 </v>
    <v type="int" >        2       20       24       29       30 </v>
    <v type="int" >        2       24       25       29       30 </v>
    <v type="int" >        2       24       25       26       30 </v>
    <v type="int" >        2       17       20       21       29 </v>
    <v type="int" >        2       20       21       24       29 </v>
    <v type="int" >        2       21       24       25       29 </v>
    <v type="int" >        2       17       21       29       32 </v>
    <v type="int" >        2       21       28       29       32 </v>
    <v type="int" >        2       21       25       28       29 </v>
    <v type="int" >        2       21       22       26       28 </v>
    <v type="int" >        2       21       25       26       28 </v>
    <v type="int" >        2       24       25       26       28 </v>
    <v type="int" >        2       22       26       27       28 </v>
    <v type="int" >        2       23       26       27       28 </v>
    <v type="int" >        2       23       24       26       28 </v>
    <v type="int" >        2       22       23       27       27 </v>
    <v type="int" >        2       22       26       27       27 </v>
    <v type="int" >        2       23       26       27       27 </v>
    <v type="int" >        2       21       24       25       25 </v>
    <v type="int" >        2       24       25       25       28 </v>
    <v type="int" >        2       21       25       25       28 </v>
    <v type="int" >        2       18       20       29       30 </v>
    <v type="int" >        2       17       18       20       29 </v>
    <v type="int" >        2       17       18       20       32 </v>
    <v type="int" >        2       18       19       20       30 </v>
    <v type="int" >        2       18       19       20       31 </v>
    <v type="int" >        2       18       20       31       32 </v>
    <v type="int" >        2       19       19       30       31 </v>
    <v type="int" >        2       18       19       19       30 </v>
    <v type="int" >        2       18       19       19       31 </v>
    <v type="int" >        2       17       17       29       32 </v>
    <v type="int" >        2       17       17       20       32 </v>
    <v type="int" >        2       17       17       20       29 </v>
    <v type="int" >        2        1       11       15       16 </v>
    <v type="int" >        2        1       11       12       16 </v>
    <v type="int" >        2        1        5       11       12 </v>
    <v type="int" >        2        1        2       11       15 </v>
    <v type="int" >        2        1        2        6       11 </v>
    <v type="int" >        2        1        5        6       11 </v>
    <v type="int" >        2        2       10       14       15 </v>
    <v type="int" >        2        2       10       11       15 </v>
    <v type="int" >        2        2        6       10       11 </v>
    <v type="int" >        2        2        3       10       14 </v>
    <v type="int" >        2        2        3        7       10 </v>
    <v type="int" >        2        2        6        7       10 </v>
    <v type="int" >        2        3        9       13       14 </v>
    <v type="int" >        2        3        9       10       14 </v>
    <v type="int" >        2        3        7        9       10 </v>
    <v type="int" >        2        3        4        9       13 </v>
    <v type="int" >        2        3        4        8        9 </v>
    <v type="int" >        2        3        7        8        9 </v>
    <v type="int" >        2        4       12       13       16 </v>
    <v type="int" >        2        4        9       12       13 </v>
    <v type="int" >        2        4        8        9       12 </v>
    <v type="int" >        2        1        4       12       16 </v>
    <v type="int" >        2        1        4        5       12 </v>
    <v type="int" >        2        4        5        8       12 </v>
    <v type="int" >        2        5        7       11       12 </v>
    <v type="int" >        2        5        7        8       12 </v>
    <v type="int" >        2        5        7        8        9 </v>
    <v type="int" >        2        5        6        7       11 </v>
    <v type="int" >        2        5        6        7       10 </v>
    <v type="int" >        2        5        7        9       10 </v>
    <v type="int" >        2        6        6       10       11 </v>
    <v type="int" >        2        6        6        7       11 </v>
    <v type="int" >        2        6        6        7       10 </v>
    <v type="int" >        2        8        8        9       12 </v>
    <v type="int" >        2        5        8        8        9 </v>
    <v type="int" >        2        5        8        8       12 </v>
    <v type="int" >        2        3        4       13       15 </v>
    <v type="int" >        2        4       13       15       16 </v>
    <v type="int" >        2        1       13       15       16 </v>
    <v type="int" >        2        3       13       14       15 </v>
    <v type="int" >        2        2       13       14       15 </v>
    <v type="int" >        2        1        2       13       15 </v>
    <v type="int" >        2        2        3       14       14 </v>
    <v type="int" >        2        3       14       14       15 </v>
    <v type="int" >        2        2       14       14       15 </v>
    <v type="int" >        2        1        4       16       16 </v>
    <v type="int" >        2        1       13       16       16 </v>
    <v type="int" >        2        4       13       16       16 </v>
   </varray>
   <i name="volumeweight">      0.00260417 </i>
  </kpoints>
  <scstep>
   <time name="total">   22.45   22.45</time>
   <energy>
    <i name="e_fr_energy">   -709.80558184 </i>
    <i name="e_wo_entrp">   -709.80558184 </i>
    <i name="e_0_energy">   -709.80558184 </i>
   </energy>
  </scstep>
  <scstep>
   <time name="total">   24.03   24.03</time>
   <energy>
    <i name="e_fr_energy">   -708.38910838 </i>
    <i name="e_wo_entrp">   -708.38910838 </i>
    <i name="e_0_energy">   -708.38910838 </i>
   </energy>
  </scstep>
  <scstep>
   <time name="total">   27.35   27.35</time>
   <energy>
    <i name="e_fr_energy">   -712.22223709 </i>
    <i name="e_wo_entrp">   -712.22223709 </i>
    <i name="e_0_energy">   -712.22223709 </i>
   </energy>
  </scstep>
  <scstep>
   <time name="total">   32.00   32.00</time>
   <energy>
    <i name="e_fr_energy">   -716.44880710 </i>
    <i name="e_wo_entrp">   -716.44880710 </i>
    <i name="e_0_energy">   -716.44880710 </i>
   </energy>
  </scstep>
  <scstep>
   <time name="total">   32.22   32.22</time>
   <energy>
    <i name="e_fr_energy">   -718.09733836 </i>
    <i name="e_wo_entrp">   -718.09733836 </i>
    <i name="e_0_energy">   -718.09733836 </i>
   </energy>
  </scstep>
  <scstep>
   <time name="total">   32.32   32.32</time>
   <energy>
    <i name="e_fr_energy">   -718.85601801 </i>
    <i name="e_wo_entrp">   -718.85601801 </i>
    <i name="e_0_energy">   -718.85601801 </i>
   </energy>
  </scstep>
  <scstep>
   <time name="total">   32.35   32.35</time>
   <energy>
    <i name="e_fr_energy">   -719.45849221 </i>
    <i name="e_wo_entrp">   -719.45849221 </i>
    <i name="e_0_energy">   -719.45849221 </i>
   </energy>
  </scstep>
  <scstep>
   <time name="total">   32.55   32.55</time>
   <energy>
    <i name="e_fr_energy">   -719.64298858 </i>
    <i name="e_wo_entrp">   -719.64298858 </i>
    <i name="e_0_energy">   -719.64298858 </i>
   </energy>
  </scstep>
  <scstep>
   <time name="total">   32.61   32.61</time>
   <energy>
    <i name="e_fr_energy">   -719.79945697 </i>
    <i name="e_wo_entrp">   -719.79945697 </i>
    <i name="e_0_energy">   -719.79945697 </i>
   </energy>
  </scstep>
  <scstep>
   <time name="total">   32.46   32.47</time>
   <energy>
    <i name="e_fr_energy">   -719.98926421 </i>
    <i name="e_wo_entrp">   -719.98926421 </i>
    <i name="e_0_energy">   -719.98926421 </i>
   </energy>
  </scstep>
  <scstep>
   <time name="total">   32.57   32.57</time>
   <energy>
    <i name="e_fr_energy">   -720.03204229 </i>
    <i name="e_wo_entrp">   -720.03204229 </i>
    <i name="e_0_energy">   -720.03204229 </i>
   </energy>
  </scstep>
  <scstep>
   <time name="total">   32.58   32.59</time>
   <energy>
    <i name="e_fr_energy">   -720.04973790 </i>
    <i name="e_wo_entrp">   -720.04973790 </i>
    <i name="e_0_energy">   -720.04973790 </i>
   </energy>
  </scstep>
  <scstep>
   <time name="total">   32.51   32.51</time>
   <energy>
    <i name="e_fr_energy">   -720.05630082 </i>
    <i name="e_wo_entrp">   -720.05630082 </i>
    <i name="e_0_energy">   -720.05630082 </i>
   </energy>
  </scstep>
  <scstep>
   <time name="total">   32.16   32.17</time>
   <energy>
    <i name="e_fr_energy">   -720.06351115 </i>
    <i name="e_wo_entrp">   -720.06351115 </i>
    <i name="e_0_energy">   -720.06351115 </i>
   </energy>
  </scstep>
  <scstep>
   <time name="total">   32.31   32.31</time>
   <energy>
    <i name="e_fr_energy">   -720.11689638 </i>
    <i name="e_wo_entrp">   -720.11689638 </i>
    <i name="e_0_energy">   -720.11689638 </i>
   </energy>
  </scstep>
  <scstep>
   <time name="total">   32.14   32.14</time>
   <energy>
    <i name="e_fr_energy">   -720.09878477 </i>
    <i name="e_wo_entrp">   -720.09878477 </i>
    <i name="e_0_energy">   -720.09878477 </i>
   </energy>
  </scstep>
  <scstep>
   <time name="total">   32.15   32.15</time>
   <energy>
    <i name="e_fr_energy">   -720.10312513 </i>
    <i name="e_wo_entrp">   -720.10312513 </i>
    <i name="e_0_energy">   -720.10312513 </i>
   </energy>
  </scstep>
  <scstep>
   <time name="total">   32.11   32.12</time>
   <energy>
    <i name="e_fr_energy">   -720.10596699 </i>
    <i name="e_wo_entrp">   -720.10596699 </i>
    <i name="e_0_energy">   -720.10596699 </i>
   </energy>
  </scstep>
  <scstep>
   <time name="total">   32.14   32.14</time>
   <energy>
    <i name="e_fr_energy">   -720.11885398 </i>
    <i name="e_wo_entrp">   -720.11885398 </i>
    <i name="e_0_energy">   -720.11885398 </i>
   </energy>
  </scstep>
  <scstep>
   <time name="total">   31.88   31.88</time>
   <energy>
    <i name="e_fr_energy">   -720.12314818 </i>
    <i name="e_wo_entrp">   -720.12314818 </i>
    <i name="e_0_energy">   -720.12314818 </i>
   </energy>
  </scstep>
  <scstep>
   <time name="total">   32.09   32.09</time>
   <energy>
    <i name="e_fr_energy">   -720.14576494 </i>
    <i name="e_wo_entrp">   -720.14576494 </i>
    <i name="e_0_energy">   -720.14576494 </i>
   </energy>
  </scstep>
  <scstep>
   <time name="total">   31.81   31.81</time>
   <energy>
    <i name="e_fr_energy">   -720.08475205 </i>
    <i name="e_wo_entrp">   -720.08475205 </i>
    <i name="e_0_energy">   -720.08475205 </i>
   </energy>
  </scstep>
  <scstep>
   <time name="total">   31.71   31.71</time>
   <energy>
    <i name="e_fr_energy">   -720.14428814 </i>
    <i name="e_wo_entrp">   -720.14428814 </i>
    <i name="e_0_energy">   -720.14428814 </i>
   </energy>
  </scstep>
  <scstep>
   <time name="total">   32.02   32.02</time>
   <energy>
    <i name="e_fr_energy">   -720.12849181 </i>
    <i name="e_wo_entrp">   -720.12849181 </i>
    <i name="e_0_energy">   -720.12849181 </i>
   </energy>
  </scstep>
  <scstep>
   <time name="total">   32.07   32.07</time>
   <energy>
    <i name="e_fr_energy">   -720.13944963 </i>
    <i name="e_wo_entrp">   -720.13944963 </i>
    <i name="e_0_energy">   -720.13944963 </i>
   </energy>
  </scstep>
  <scstep>
   <time name="total">   32.09   32.09</time>
   <energy>
    <i name="e_fr_energy">   -720.11307722 </i>
    <i name="e_wo_entrp">   -720.11307722 </i>
    <i name="e_0_energy">   -720.11307722 </i>
   </energy>
  </scstep>
  <scstep>
   <time name="total">   32.02   32.02</time>
   <energy>
    <i name="e_fr_energy">   -720.16292125 </i>
    <i name="e_wo_entrp">   -720.16292125 </i>
    <i name="e_0_energy">   -720.16292125 </i>
   </energy>
  </scstep>
  <scstep>
   <time name="total">   31.71   31.71</time>
   <energy>
    <i name="e_fr_energy">   -720.11770246 </i>
    <i name="e_wo_entrp">   -720.11770246 </i>
    <i name="e_0_energy">   -720.11770246 </i>
   </energy>
  </scstep>
  <scstep>
   <time name="total">   31.92   31.92</time>
   <energy>
    <i name="e_fr_energy">   -720.16646399 </i>
    <i name="e_wo_entrp">   -720.16646399 </i>
    <i name="e_0_energy">   -720.16646399 </i>
   </energy>
  </scstep>
  <scstep>
   <time name="total">   31.64   31.64</time>
   <energy>
    <i name="e_fr_energy">   -720.13297321 </i>
    <i name="e_wo_entrp">   -720.13297321 </i>
    <i name="e_0_energy">   -720.13297321 </i>
   </energy>
  </scstep>
  <scstep>
   <time name="total">   31.63   31.63</time>
   <energy>
    <i name="e_fr_energy">   -720.14713050 </i>
    <i name="e_wo_entrp">   -720.14713050 </i>
    <i name="e_0_energy">   -720.14713050 </i>
   </energy>
  </scstep>
  <scstep>
   <time name="total">   31.92   31.93</time>
   <energy>
    <i name="e_fr_energy">   -720.15140820 </i>
    <i name="e_wo_entrp">   -720.15140820 </i>
    <i name="e_0_energy">   -720.15140820 </i>
   </energy>
  </scstep>
  <scstep>
   <time name="total">   31.75   31.76</time>
   <energy>
    <i name="e_fr_energy">   -720.17025442 </i>
    <i name="e_wo_entrp">   -720.17025442 </i>
    <i name="e_0_energy">   -720.17025442 </i>
   </energy>
  </scstep>
  <kpoints>
   <generation param="Monkhorst-Pack">
    <v type="int" name="divisions">       4        4        4 </v>
    <v name="usershift">      0.00000000       0.00000000       0.00000000 </v>
    <v name="genvec1">      0.25000000       0.00000000      -0.00000000 </v>
    <v name="genvec2">      0.00000000       0.25000000       0.00000000 </v>
    <v name="genvec3">      0.00000000       0.00000000       0.25000000 </v>
    <v name="shift">      0.50000000       0.50000000       0.50000000 </v>
   </generation>
   <varray name="kpointlist" >
    <v>       0.12500000       0.12500000       0.12500000 </v>
    <v>       0.37500000       0.12500000       0.12500000 </v>
    <v>      -0.37500000       0.12500000       0.12500000 </v>
    <v>      -0.12500000       0.12500000       0.12500000 </v>
    <v>       0.12500000       0.37500000       0.12500000 </v>
    <v>       0.37500000       0.37500000       0.12500000 </v>
    <v>      -0.37500000       0.37500000       0.12500000 </v>
    <v>      -0.12500000       0.37500000       0.12500000 </v>
    <v>       0.12500000      -0.37500000       0.12500000 </v>
    <v>       0.37500000      -0.37500000       0.12500000 </v>
    <v>      -0.37500000      -0.37500000       0.12500000 </v>
    <v>      -0.12500000      -0.37500000       0.12500000 </v>
    <v>       0.12500000      -0.12500000       0.12500000 </v>
    <v>       0.37500000      -0.12500000       0.12500000 </v>
    <v>      -0.37500000      -0.12500000       0.12500000 </v>
    <v>      -0.12500000      -0.12500000       0.12500000 </v>
    <v>       0.12500000       0.12500000       0.37500000 </v>
    <v>       0.37500000       0.12500000       0.37500000 </v>
    <v>      -0.37500000       0.12500000       0.37500000 </v>
    <v>      -0.12500000       0.12500000       0.37500000 </v>
[...]
       <r>     5.2474     0.0000   140.0000 </r>
       <r>     5.4297     0.0000   140.0000 </r>
       <r>     5.6121     0.0000   140.0000 </r>
       <r>     5.7945     0.0000   140.0000 </r>
       <r>     5.9769     0.0000   140.0000 </r>
       <r>     6.1592     0.0000   140.0000 </r>
       <r>     6.3416     0.0000   140.0000 </r>
       <r>     6.5240     0.0000   140.0000 </r>
       <r>     6.7063     0.0000   140.0000 </r>
       <r>     6.8887     3.1911   140.2640 </r>
       <r>     7.0711    10.0185   141.2611 </r>
       <r>     7.2535    16.9492   143.6042 </r>
       <r>     7.4358     4.9003   145.9778 </r>
       <r>     7.6182    21.8301   148.3411 </r>
       <r>     7.8006    12.9278   151.3698 </r>
       <r>     7.9830    19.0313   155.0944 </r>
       <r>     8.1653    18.7807   158.9435 </r>
       <r>     8.3477    18.4458   162.6802 </r>
       <r>     8.5301     0.0000   164.0000 </r>
       <r>     8.7125     0.0000   164.0000 </r>
       <r>     8.8948     0.0000   164.0000 </r>
       <r>     9.0772     0.0000   164.0000 </r>
       <r>     9.2596    45.9527   168.0681 </r>
       <r>     9.4419    45.9954   177.1439 </r>
       <r>     9.6243    46.6392   186.9736 </r>
       <r>     9.8067     2.0176   191.9057 </r>
       <r>     9.9891     0.0000   192.0000 </r>
       <r>    10.1714     0.0000   192.0000 </r>
       <r>    10.3538     0.0000   192.0000 </r>
       <r>    10.5362     0.0000   192.0000 </r>
       <r>    10.7186     0.0000   192.0000 </r>
       <r>    10.9009     0.0000   192.0000 </r>
       <r>    11.0833     0.0000   192.0000 </r>
       <r>    11.2657     0.0000   192.0000 </r>
       <r>    11.4480     0.0000   192.0000 </r>
       <r>    11.6304     0.0000   192.0000 </r>
       <r>    11.8128     0.0000   192.0000 </r>
       <r>    11.9952     0.0000   192.0000 </r>
       <r>    12.1775     0.0000   192.0000 </r>
       <r>    12.3599     0.0000   192.0000 </r>
      </set>
      <set comment="spin 2">
       <r>   -42.3520     0.0000     0.0000 </r>
       <r>   -42.1696     0.0000     0.0000 </r>
       <r>   -41.9872     0.0000     0.0000 </r>
       <r>   -41.8048     0.0000     0.0000 </r>
       <r>   -41.6225     0.0000     0.0000 </r>
       <r>   -41.4401     0.0000     0.0000 </r>
       <r>   -41.2577     0.0000     0.0000 </r>
       <r>   -41.0753     0.0000     0.0000 </r>
       <r>   -40.8930     0.0000     0.0000 </r>
       <r>   -40.7106     0.0000     0.0000 </r>
       <r>   -40.5282     0.0000     0.0000 </r>
       <r>   -40.3459     0.0000     0.0000 </r>
       <r>   -40.1635     0.0000     0.0000 </r>
       <r>   -39.9811     0.0000     0.0000 </r>
       <r>   -39.7987     0.0000     1.0000 </r>
       <r>   -39.6164     0.0000     1.0000 </r>
       <r>   -39.4340     0.0000     1.0000 </r>
       <r>   -39.2516     0.0000     3.0000 </r>
       <r>   -39.0692     0.0000     3.0000 </r>
       <r>   -38.8869     0.0000     4.0000 </r>
       <r>   -38.7045     0.0000     4.0000 </r>
       <r>   -38.5221     0.0000     4.0000 </r>
       <r>   -38.3398     0.0000     4.0000 </r>
       <r>   -38.1574     0.0000     4.0000 </r>
       <r>   -37.9750     0.0000     4.0000 </r>
       <r>   -37.7926     0.0000     4.0000 </r>
       <r>   -37.6103     0.0000     4.0000 </r>
       <r>   -37.4279     0.0000     4.0000 </r>
       <r>   -37.2455     0.0000     4.0000 </r>
       <r>   -37.0631     0.0000     4.0000 </r>
       <r>   -36.8808     0.0000     4.0000 </r>
       <r>   -36.6984     0.0000     4.0000 </r>
       <r>   -36.5160     0.0000     4.0000 </r>
       <r>   -36.3337     0.0000     4.0000 </r>
       <r>   -36.1513     0.0000     4.0000 </r>
       <r>   -35.9689     0.0000     4.0000 </r>
       <r>   -35.7865     0.0000     4.0000 </r>
       <r>   -35.6042     0.0000     4.0000 </r>
       <r>   -35.4218     0.0000     4.0000 </r>
       <r>   -35.2394     0.0000     4.0000 </r>
       <r>   -35.0570     0.0000     4.0000 </r>
       <r>   -34.8747     0.0000     4.0000 </r>
       <r>   -34.6923     0.0000     4.0000 </r>
       <r>   -34.5099     0.0000     4.0000 </r>
       <r>   -34.3275     0.0000     4.0000 </r>
       <r>   -34.1452     0.0000     4.0000 </r>
       <r>   -33.9628     0.0000     4.0000 </r>
       <r>   -33.7804     0.0000     4.0000 </r>
       <r>   -33.5981     0.0000     4.0000 </r>
       <r>   -33.4157     0.0000     4.0000 </r>
       <r>   -33.2333     0.0000     4.0000 </r>
       <r>   -33.0509     0.0000     4.0000 </r>
       <r>   -32.8686     0.0000     4.0000 </r>
       <r>   -32.6862     0.0000     4.0000 </r>
       <r>   -32.5038     0.0000     4.0000 </r>
       <r>   -32.3214     0.0000     4.0000 </r>
       <r>   -32.1391     0.0000     4.0000 </r>
       <r>   -31.9567     0.0000     4.0000 </r>
       <r>   -31.7743     0.0000     4.0000 </r>
       <r>   -31.5920     0.0000     4.0000 </r>
       <r>   -31.4096     0.0000     4.0000 </r>
       <r>   -31.2272     0.0000     4.0000 </r>
       <r>   -31.0448     0.0000     4.0000 </r>
       <r>   -30.8625     0.0000     4.0000 </r>
       <r>   -30.6801     0.0000     4.0000 </r>
       <r>   -30.4977     0.0000     4.0000 </r>
       <r>   -30.3153     0.0000     4.0000 </r>
       <r>   -30.1330     0.0000     4.0000 </r>
       <r>   -29.9506     0.0000     4.0000 </r>
       <r>   -29.7682     0.0000     4.0000 </r>
       <r>   -29.5859     0.0000     4.0000 </r>
       <r>   -29.4035     0.0000     4.0000 </r>
       <r>   -29.2211     0.0000     4.0000 </r>
       <r>   -29.0387     0.0000     4.0000 </r>
       <r>   -28.8564     0.0000     4.0000 </r>
       <r>   -28.6740     0.0000     4.0000 </r>
       <r>   -28.4916     0.0000     4.0000 </r>
       <r>   -28.3092     0.0000    27.0000 </r>
       <r>   -28.1269     0.0000    28.0000 </r>
       <r>   -27.9445     0.0000    28.0000 </r>
       <r>   -27.7621     0.0000    28.0000 </r>
       <r>   -27.5798     0.0000    28.0000 </r>
       <r>   -27.3974     0.0000    28.0000 </r>
       <r>   -27.2150     0.0000    28.0000 </r>
       <r>   -27.0326     0.0000    28.0000 </r>
       <r>   -26.8503     0.0000    28.0000 </r>
       <r>   -26.6679     0.0000    28.0000 </r>
       <r>   -26.4855     0.0000    28.0000 </r>
       <r>   -26.3031     0.0000    28.0000 </r>
       <r>   -26.1208     0.0000    28.0000 </r>
       <r>   -25.9384     0.0000    28.0000 </r>
       <r>   -25.7560     0.0000    28.0000 </r>
       <r>   -25.5737     0.0000    29.0000 </r>
       <r>   -25.3913     0.0000    31.0000 </r>
       <r>   -25.2089     0.0000    32.0000 </r>
       <r>   -25.0265     0.0000    32.0000 </r>
       <r>   -24.8442     0.0000    32.0000 </r>
       <r>   -24.6618     0.0000    32.0000 </r>
       <r>   -24.4794     0.0000    32.0000 </r>
       <r>   -24.2970     0.0000    32.0000 </r>
       <r>   -24.1147     0.0000    32.0000 </r>
       <r>   -23.9323     0.0000    32.0000 </r>
       <r>   -23.7499     0.0000    32.0000 </r>
       <r>   -23.5675     0.0000    32.0000 </r>
       <r>   -23.3852     0.0000    32.0000 </r>
       <r>   -23.2028     0.0000    32.0000 </r>
       <r>   -23.0204     0.0000    32.0000 </r>
       <r>   -22.8381     0.0000    32.0000 </r>
       <r>   -22.6557     0.0000    32.0000 </r>
       <r>   -22.4733     0.0000    32.0000 </r>
       <r>   -22.2909     0.0000    32.0000 </r>
       <r>   -22.1086     0.0000    32.0000 </r>
       <r>   -21.9262     0.0000    32.0000 </r>
       <r>   -21.7438     0.0000    32.0000 </r>
       <r>   -21.5614     0.0000    32.0000 </r>
       <r>   -21.3791     0.0000    32.0000 </r>
       <r>   -21.1967     0.0000    32.0000 </r>
       <r>   -21.0143     0.0000    32.0000 </r>
       <r>   -20.8320     0.0000    32.0000 </r>
       <r>   -20.6496     0.0000    32.0000 </r>
       <r>   -20.4672     0.0000    32.0000 </r>
       <r>   -20.2848     0.0000    32.0000 </r>
       <r>   -20.1025     0.0000    32.0000 </r>
       <r>   -19.9201     0.0000    32.0000 </r>
       <r>   -19.7377     0.0000    32.0000 </r>
       <r>   -19.5553     0.0000    32.0000 </r>
       <r>   -19.3730     0.0000    32.0000 </r>
       <r>   -19.1906     0.0000    32.0000 </r>
       <r>   -19.0082     0.0000    32.0000 </r>
       <r>   -18.8259     0.0000    32.0000 </r>
       <r>   -18.6435     0.0000    32.0000 </r>
       <r>   -18.4611     0.0000    32.0000 </r>
       <r>   -18.2787     0.0000    32.0000 </r>
       <r>   -18.0964     0.0000    32.0000 </r>
       <r>   -17.9140     0.0000    32.0000 </r>
       <r>   -17.7316     0.0000    32.0000 </r>
       <r>   -17.5492     0.0000    32.0000 </r>
       <r>   -17.3669     0.0000    32.0000 </r>
       <r>   -17.1845     0.0000    32.0000 </r>
       <r>   -17.0021     0.0000    32.0000 </r>
       <r>   -16.8198     0.0000    32.0000 </r>
       <r>   -16.6374     0.0000    32.0000 </r>
       <r>   -16.4550     0.0000    32.0000 </r>
       <r>   -16.2726     0.0000    32.0000 </r>
       <r>   -16.0903     0.0000    32.0000 </r>
       <r>   -15.9079     0.0000    32.0000 </r>
       <r>   -15.7255     0.0000    32.0000 </r>
       <r>   -15.5431     0.0000    32.0000 </r>
       <r>   -15.3608     0.0000    32.0000 </r>
       <r>   -15.1784     0.0000    32.0000 </r>
       <r>   -14.9960     0.0000    32.0000 </r>
       <r>   -14.8137     0.0000    32.0000 </r>
       <r>   -14.6313     0.0000    32.0000 </r>
       <r>   -14.4489     0.0000    32.0000 </r>
       <r>   -14.2665     0.0000    32.0000 </r>
       <r>   -14.0842     0.0000    32.0000 </r>
       <r>   -13.9018     0.0000    32.0000 </r>
       <r>   -13.7194     0.0000    32.0000 </r>
       <r>   -13.5370     0.0000    32.0000 </r>
       <r>   -13.3547     0.0000    32.0000 </r>
       <r>   -13.1723     4.7846    32.3023 </r>
       <r>   -12.9899    13.7311    34.4123 </r>
       <r>   -12.8075     0.0000    36.0000 </r>
       <r>   -12.6252    12.0888    37.3091 </r>
       <r>   -12.4428     6.2782    38.8045 </r>
       <r>   -12.2604    17.4015    40.8052 </r>
       <r>   -12.0781    24.3384    43.2149 </r>
       <r>   -11.8957    79.3932    47.3795 </r>
       <r>   -11.7133    41.7950    53.8622 </r>
       <r>   -11.5309     0.0000    56.0000 </r>
       <r>   -11.3486     0.0000    56.0000 </r>
       <r>   -11.1662     0.0000    56.0000 </r>
       <r>   -10.9838     0.0000    56.0000 </r>
       <r>   -10.8014     0.0000    56.0000 </r>
       <r>   -10.6191     0.0000    56.0000 </r>
       <r>   -10.4367     0.0000    56.0000 </r>
       <r>   -10.2543     0.0000    56.0000 </r>
       <r>   -10.0720     0.0000    56.0000 </r>
       <r>    -9.8896     0.0000    56.0000 </r>
       <r>    -9.7072     0.0000    56.0000 </r>
       <r>    -9.5248     0.0000    56.0000 </r>
       <r>    -9.3425     0.0000    56.0000 </r>
       <r>    -9.1601     0.0000    58.0000 </r>
       <r>    -8.9777     7.6034    60.1415 </r>
       <r>    -8.7953     8.6254    61.8865 </r>
       <r>    -8.6130     0.0000    65.0000 </r>
       <r>    -8.4306    18.7869    65.9063 </r>
       <r>    -8.2482     5.3386    67.7629 </r>
       <r>    -8.0659     0.0000    68.0000 </r>
       <r>    -7.8835     0.0000    68.0000 </r>
       <r>    -7.7011     0.0000    68.0000 </r>
       <r>    -7.5187     0.0000    68.0000 </r>
       <r>    -7.3364     0.0000    68.0000 </r>
       <r>    -7.1540     0.0000    68.0000 </r>
       <r>    -6.9716     0.0000    68.0000 </r>
       <r>    -6.7892     0.0000    68.0000 </r>
       <r>    -6.6069     0.0000    68.0000 </r>
       <r>    -6.4245     0.0000    68.0000 </r>
       <r>    -6.2421     0.0000    68.0000 </r>
       <r>    -6.0598     0.0000    68.0000 </r>
       <r>    -5.8774     0.0000    68.0000 </r>
       <r>    -5.6950     0.0000    68.0000 </r>
       <r>    -5.5126     0.0000    68.0000 </r>
       <r>    -5.3303     0.0000    68.0000 </r>
       <r>    -5.1479     0.0000    68.0000 </r>
       <r>    -4.9655     0.0000    68.0000 </r>
       <r>    -4.7831     0.0000    68.0000 </r>
       <r>    -4.6008     0.0000    68.0000 </r>
       <r>    -4.4184     0.0000    68.0000 </r>
       <r>    -4.2360     0.0000    68.0000 </r>
       <r>    -4.0537     0.0000    68.0000 </r>
       <r>    -3.8713     0.0000    68.0000 </r>
       <r>    -3.6889     0.0000    68.0000 </r>
       <r>    -3.5065     0.0000    68.0000 </r>
       <r>    -3.3242     0.0000    68.0000 </r>
       <r>    -3.1418     0.0000    68.0000 </r>
       <r>    -2.9594     0.0000    68.0000 </r>
       <r>    -2.7770     0.0000    68.0000 </r>
       <r>    -2.5947     0.0000    68.0000 </r>
       <r>    -2.4123     0.0000    68.0000 </r>
       <r>    -2.2299     0.0000    68.0000 </r>
       <r>    -2.0475     0.0000    68.0000 </r>
       <r>    -1.8652     0.0000    68.0000 </r>
       <r>    -1.6828     0.0000    68.0000 </r>
       <r>    -1.5004     0.0000    68.0000 </r>
       <r>    -1.3181     0.0000    68.0000 </r>
       <r>    -1.1357     0.0000    68.0000 </r>
       <r>    -0.9533     0.0000    68.0000 </r>
       <r>    -0.7709     0.0000    68.0000 </r>
       <r>    -0.5886     0.0000    68.0000 </r>
       <r>    -0.4062     0.0000    68.0000 </r>
       <r>    -0.2238     0.0000    68.0000 </r>
       <r>    -0.0414     0.0000    68.0000 </r>
       <r>     0.1409    17.4281    69.1604 </r>
       <r>     0.3233    16.6768    73.2057 </r>
       <r>     0.5057    13.0013    76.0480 </r>
       <r>     0.6880    19.5304    79.0268 </r>
       <r>     0.8704    20.2601    82.8008 </r>
       <r>     1.0528    36.9170    86.5670 </r>
       <r>     1.2352    16.1584    89.7590 </r>
       <r>     1.4175    18.6455    93.4046 </r>
       <r>     1.5999    22.9998    97.0941 </r>
       <r>     1.7823    17.1090   100.3640 </r>
       <r>     1.9647    18.2023   103.1234 </r>
       <r>     2.1470    13.4555   105.9014 </r>
       <r>     2.3294    13.7648   108.3725 </r>
       <r>     2.5118    11.4909   110.9037 </r>
       <r>     2.6941    15.5517   113.8215 </r>
       <r>     2.8765     8.0062   116.5650 </r>
       <r>     3.0589    19.7252   119.8233 </r>
       <r>     3.2413    23.5915   123.4432 </r>
       <r>     3.4236     9.7666   126.9812 </r>
       <r>     3.6060    17.8960   131.1483 </r>
       <r>     3.7884    20.7998   134.8923 </r>
       <r>     3.9708     8.7764   138.9728 </r>
       <r>     4.1531     0.0000   140.0000 </r>
       <r>     4.3355     0.0000   140.0000 </r>
       <r>     4.5179     0.0000   140.0000 </r>
       <r>     4.7002     0.0000   140.0000 </r>
       <r>     4.8826     0.0000   140.0000 </r>
       <r>     5.0650     0.0000   140.0000 </r>
       <r>     5.2474     0.0000   140.0000 </r>
       <r>     5.4297     0.0000   140.0000 </r>
       <r>     5.6121     0.0000   140.0000 </r>
       <r>     5.7945     0.0000   140.0000 </r>
       <r>     5.9769     0.0000   140.0000 </r>
       <r>     6.1592     0.0000   140.0000 </r>
       <r>     6.3416     0.0000   140.0000 </r>
       <r>     6.5240     0.0000   140.0000 </r>
       <r>     6.7063     0.0000   140.0000 </r>
       <r>     6.8887     3.1918   140.2642 </r>
       <r>     7.0711    10.0403   141.2617 </r>
       <r>     7.2535    16.9423   143.6052 </r>
       <r>     7.4358     4.8942   145.9780 </r>
       <r>     7.6182    21.8813   148.3422 </r>
       <r>     7.8006    12.9315   151.3704 </r>
       <r>     7.9830    19.0267   155.0953 </r>
       <r>     8.1653    18.7877   158.9444 </r>
       <r>     8.3477    18.4252   162.6810 </r>
       <r>     8.5301     0.0000   164.0000 </r>
       <r>     8.7125     0.0000   164.0000 </r>
       <r>     8.8948     0.0000   164.0000 </r>
       <r>     9.0772     0.0000   164.0000 </r>
       <r>     9.2596    45.9256   168.0690 </r>
       <r>     9.4419    45.9949   177.1444 </r>
       <r>     9.6243    46.6281   186.9738 </r>
       <r>     9.8067     2.0263   191.9053 </r>
       <r>     9.9891     0.0000   192.0000 </r>
       <r>    10.1714     0.0000   192.0000 </r>
       <r>    10.3538     0.0000   192.0000 </r>
       <r>    10.5362     0.0000   192.0000 </r>
       <r>    10.7186     0.0000   192.0000 </r>
       <r>    10.9009     0.0000   192.0000 </r>
       <r>    11.0833     0.0000   192.0000 </r>
       <r>    11.2657     0.0000   192.0000 </r>
       <r>    11.4480     0.0000   192.0000 </r>
       <r>    11.6304     0.0000   192.0000 </r>
       <r>    11.8128     0.0000   192.0000 </r>
       <r>    11.9952     0.0000   192.0000 </r>
       <r>    12.1775     0.0000   192.0000 </r>
       <r>    12.3599     0.0000   192.0000 </r>
      </set>
     </set>
    </array>
   </total>
  </dos>
 </calculation>
 <structure name="finalpos" >
  <crystal>
   <varray name="basis" >
    <v>       7.85863038       0.00005142      -0.13760597 </v>
    <v>       0.00005109       7.69057214       0.00001816 </v>
    <v>      -0.13792247       0.00001857       7.73517286 </v>
   </varray>
   <i name="volume">    467.34749763 </i>
   <varray name="rec_basis" >
    <v>       0.12728838      -0.00000085       0.00226962 </v>
    <v>      -0.00000086       0.13002934      -0.00000033 </v>
    <v>       0.00226441      -0.00000032       0.12931997 </v>
   </varray>
  </crystal>
  <varray name="positions" >
   <v>       0.00912359       0.00022486       0.49738218 </v>
   <v>       0.97308282       0.50023065       0.01052307 </v>
   <v>       0.99030649       0.50024541       0.51716542 </v>
   <v>       0.47823377       0.50024017       0.51786741 </v>
   <v>       0.92191143       0.00021596       0.04600415 </v>
   <v>       0.45153384       0.00022071       0.09088344 </v>
   <v>       0.43264542       0.00021380       0.54985982 </v>
   <v>       0.51493698       0.50003706       0.99070923 </v>
   <v>       0.24151311       0.24301026       0.24899601 </v>
   <v>       0.26033041       0.24368524       0.77937056 </v>
   <v>       0.24150012       0.75741154       0.24898876 </v>
   <v>       0.26034076       0.75676197       0.77938282 </v>
   <v>       0.72516282       0.24561075       0.24834576 </v>
   <v>       0.73525850       0.23598540       0.75544915 </v>
   <v>       0.72515605       0.75485446       0.24834770 </v>
   <v>       0.73524943       0.76447328       0.75546048 </v>
   <v>       0.30360012       0.20303658       0.00837409 </v>
   <v>       0.00716727       0.20491996       0.21116991 </v>
   <v>       0.28956278       0.00024788       0.31184933 </v>
   <v>       0.22467983       0.29163475       0.49853915 </v>
   <v>       0.02280387       0.29259176       0.77632169 </v>
   <v>       0.23366687       0.00024007       0.71051331 </v>
   <v>       0.30357570       0.79747154       0.00838388 </v>
   <v>       0.00716643       0.79557052       0.21117901 </v>
   <v>       0.21069832       0.50025358       0.21560191 </v>
   <v>       0.22467437       0.70885604       0.49854067 </v>
   <v>       0.02280738       0.70787740       0.77632315 </v>
   <v>       0.31925959       0.50023735       0.79317702 </v>
   <v>       0.72510369       0.29462099       0.99208011 </v>
   <v>       0.50327607       0.29199960       0.28039855 </v>
   <v>       0.70884464       0.00024379       0.20378457 </v>
   <v>       0.79875608       0.22614079       0.49252218 </v>
   <v>       0.51045949       0.21443309       0.69587119 </v>
   <v>       0.81073170       0.00023852       0.78209126 </v>
   <v>       0.72513637       0.70588076       0.99208849 </v>
   <v>       0.50327097       0.70851199       0.28042108 </v>
   <v>       0.79514708       0.50024336       0.27043005 </v>
   <v>       0.79875657       0.77433563       0.49252258 </v>
   <v>       0.51045585       0.78604113       0.69587414 </v>
   <v>       0.73705744       0.50024241       0.70666370 </v>
  </varray>
 </structure>
</modeling>
