<?xml version="1.0" encoding="ISO-8859-1"?>
<modeling>
 <generator>
  <i name="program" type="string">vasp </i>
  <i name="version" type="string">5.4.4.18Apr17-6-g9f103f2a35  </i>
  <i name="subversion" type="string">(build Apr 20 2021 13:31:29) complex            parallel </i>
  <i name="platform" type="string">LinuxIFC </i>
  <i name="date" type="string">2021 06 26 </i>
  <i name="time" type="string">16:20:54 </i>
 </generator>
 <incar>
  <i type="string" name="PREC">accurate</i>
  <i type="logical" name="ADDGRID"> T  </i>
  <i type="int" name="ISPIN">     2</i>
  <i type="int" name="NELM">  2000</i>
  <i type="int" name="IBRION">     8</i>
  <i name="EDIFF">      0.00001000</i>
  <i name="ENCUT">    424.27950000</i>
  <i type="logical" name="LREAL"> F  </i>
  <i type="int" name="ISMEAR">    -5</i>
  <i name="SIGMA">      0.05000000</i>
  <i type="logical" name="LWAVE"> F  </i>
  <i type="logical" name="LCHARG"> F  </i>
  <v type="int" name="KPOINT_BSE">    -1     0     0     0</v>
  <i type="int" name="NELM">  2000</i>
 </incar>
 <structure name="primitive_cell" >
  <crystal>
   <varray name="basis" >
    <v>       7.87856000       0.00008300       0.00615600 </v>
    <v>      -0.00004900       7.87418100       0.00005200 </v>
    <v>       0.00626800      -0.00009600       7.87868900 </v>
   </varray>
   <i name="volume">    488.77156024 </i>
   <varray name="rec_basis" >
    <v>       0.12692683       0.00000079      -0.00010098 </v>
    <v>      -0.00000134       0.12699733       0.00000155 </v>
    <v>      -0.00009917      -0.00000084       0.12692475 </v>
   </varray>
  </crystal>
  <varray name="positions" >
   <v>       0.02006400      -0.01487300      -0.02019300 </v>
   <v>      -0.22676400       0.00261200      -0.20262700 </v>
   <v>       0.00018900      -0.20943200       0.21803400 </v>
   <v>       0.00100700       0.21149900       0.19391800 </v>
   <v>       0.20743400       0.00244600      -0.27238100 </v>
   <v>      -0.00067000      -0.28212300      -0.20740700 </v>
   <v>       0.28795800      -0.20935000       0.00378200 </v>
   <v>       0.00064000       0.28835600      -0.21140900 </v>
   <v>       0.29942900       0.21714400       0.00083100 </v>
   <v>       0.25079200      -0.24807100      -0.24135100 </v>
   <v>      -0.28760500      -0.28325000       0.00471100 </v>
   <v>       0.25486200       0.24900800      -0.23425300 </v>
   <v>      -0.30892100       0.01265700       0.22883000 </v>
   <v>       0.28357100       0.01048500       0.30003300 </v>
   <v>      -0.25165000      -0.25129400      -0.23961600 </v>
   <v>       0.24603700      -0.25913400       0.25525900 </v>
   <v>       0.23314600       0.24228500       0.25923600 </v>
   <v>      -0.25422800       0.25213100      -0.23345300 </v>
   <v>      -0.29698800       0.29245200       0.00229500 </v>
   <v>      -0.22932800       0.23544800       0.25739600 </v>
   <v>      -0.25113600      -0.26388500       0.26190300 </v>
   <v>       0.01670600      -0.02003200       0.49694900 </v>
   <v>      -0.02188300      -0.49731800       0.01624500 </v>
   <v>      -0.48508300      -0.00327500      -0.01226400 </v>
   <v>      -0.21501700      -0.21111500      -0.49688900 </v>
   <v>       0.22752700      -0.49738900       0.20217800 </v>
   <v>       0.20987000      -0.28350400      -0.49731500 </v>
   <v>       0.49913200      -0.21817100      -0.28280700 </v>
   <v>      -0.20921600       0.21471800       0.49366300 </v>
   <v>       0.29088400      -0.49762700      -0.21910700 </v>
   <v>      -0.49925600       0.21722800      -0.29339300 </v>
   <v>      -0.20453700      -0.49990800       0.28010200 </v>
   <v>       0.22104600       0.29863200       0.49059700 </v>
   <v>      -0.27530600      -0.49805600      -0.28940400 </v>
   <v>      -0.49874000      -0.29184900       0.29425000 </v>
   <v>      -0.01484300       0.49818600      -0.45953100 </v>
   <v>       0.48050900      -0.48954700       0.01836700 </v>
   <v>      -0.47485500      -0.01275300       0.49814400 </v>
   <v>       0.47478100      -0.48904600      -0.46243200 </v>
  </varray>
 </structure>
 <varray name="primitive_index" >
  <v type="int" >        1 </v>
  <v type="int" >       33 </v>
  <v type="int" >       25 </v>
  <v type="int" >       19 </v>
  <v type="int" >       23 </v>
  <v type="int" >       28 </v>
  <v type="int" >       24 </v>
  <v type="int" >       22 </v>
  <v type="int" >       18 </v>
  <v type="int" >       12 </v>
  <v type="int" >       34 </v>
  <v type="int" >       10 </v>
  <v type="int" >       17 </v>
  <v type="int" >       20 </v>
  <v type="int" >       16 </v>
  <v type="int" >       11 </v>
  <v type="int" >        9 </v>
  <v type="int" >       14 </v>
  <v type="int" >       30 </v>
  <v type="int" >       13 </v>
  <v type="int" >       15 </v>
  <v type="int" >        2 </v>
  <v type="int" >        3 </v>
  <v type="int" >        5 </v>
  <v type="int" >       37 </v>
  <v type="int" >       26 </v>
  <v type="int" >       27 </v>
  <v type="int" >       38 </v>
  <v type="int" >       31 </v>
  <v type="int" >       29 </v>
  <v type="int" >       32 </v>
  <v type="int" >       36 </v>
  <v type="int" >       21 </v>
  <v type="int" >       39 </v>
  <v type="int" >       35 </v>
  <v type="int" >        4 </v>
  <v type="int" >        7 </v>
  <v type="int" >        6 </v>
  <v type="int" >        8 </v>
 </varray>
 <kpoints>
  <generation param="Monkhorst-Pack">
   <v type="int" name="divisions">       4        4        4 </v>
   <v name="usershift">      0.00000000       0.00000000       0.00000000 </v>
   <v name="genvec1">      0.25000000      -0.00000000       0.00000000 </v>
   <v name="genvec2">     -0.00000000       0.25000000      -0.00000000 </v>
   <v name="genvec3">      0.00000000       0.00000000       0.25000000 </v>
   <v name="shift">      0.50000000       0.50000000       0.50000000 </v>
  </generation>
  <varray name="kpointlist" >
   <v>       0.12500000       0.12500000       0.12500000 </v>
   <v>       0.37500000       0.12500000       0.12500000 </v>
   <v>      -0.37500000       0.12500000       0.12500000 </v>
   <v>      -0.12500000       0.12500000       0.12500000 </v>
   <v>       0.12500000       0.37500000       0.12500000 </v>
   <v>       0.37500000       0.37500000       0.12500000 </v>
   <v>      -0.37500000       0.37500000       0.12500000 </v>
   <v>      -0.12500000       0.37500000       0.12500000 </v>
   <v>       0.12500000      -0.37500000       0.12500000 </v>
   <v>       0.37500000      -0.37500000       0.12500000 </v>
   <v>      -0.37500000      -0.37500000       0.12500000 </v>
   <v>      -0.12500000      -0.37500000       0.12500000 </v>
   <v>       0.12500000      -0.12500000       0.12500000 </v>
   <v>       0.37500000      -0.12500000       0.12500000 </v>
   <v>      -0.37500000      -0.12500000       0.12500000 </v>
   <v>      -0.12500000      -0.12500000       0.12500000 </v>
   <v>       0.12500000       0.12500000       0.37500000 </v>
   <v>       0.37500000       0.12500000       0.37500000 </v>
   <v>      -0.37500000       0.12500000       0.37500000 </v>
   <v>      -0.12500000       0.12500000       0.37500000 </v>
   <v>       0.12500000       0.37500000       0.37500000 </v>
   <v>       0.37500000       0.37500000       0.37500000 </v>
   <v>      -0.37500000       0.37500000       0.37500000 </v>
   <v>      -0.12500000       0.37500000       0.37500000 </v>
   <v>       0.12500000      -0.37500000       0.37500000 </v>
   <v>       0.37500000      -0.37500000       0.37500000 </v>
   <v>      -0.37500000      -0.37500000       0.37500000 </v>
   <v>      -0.12500000      -0.37500000       0.37500000 </v>
   <v>       0.12500000      -0.12500000       0.37500000 </v>
   <v>       0.37500000      -0.12500000       0.37500000 </v>
   <v>      -0.37500000      -0.12500000       0.37500000 </v>
   <v>      -0.12500000      -0.12500000       0.37500000 </v>
  </varray>
  <varray name="weights" >
   <v>       0.03125000 </v>
   <v>       0.03125000 </v>
   <v>       0.03125000 </v>
   <v>       0.03125000 </v>
   <v>       0.03125000 </v>
   <v>       0.03125000 </v>
   <v>       0.03125000 </v>
   <v>       0.03125000 </v>
   <v>       0.03125000 </v>
   <v>       0.03125000 </v>
   <v>       0.03125000 </v>
   <v>       0.03125000 </v>
   <v>       0.03125000 </v>
   <v>       0.03125000 </v>
   <v>       0.03125000 </v>
   <v>       0.03125000 </v>
   <v>       0.03125000 </v>
   <v>       0.03125000 </v>
   <v>       0.03125000 </v>
   <v>       0.03125000 </v>
   <v>       0.03125000 </v>
   <v>       0.03125000 </v>
   <v>       0.03125000 </v>
   <v>       0.03125000 </v>
   <v>       0.03125000 </v>
   <v>       0.03125000 </v>
   <v>       0.03125000 </v>
   <v>       0.03125000 </v>
   <v>       0.03125000 </v>
   <v>       0.03125000 </v>
   <v>       0.03125000 </v>
   <v>       0.03125000 </v>
  </varray>
  <varray name="tetrahedronlist"  type="int" >
   <v type="int" >        2        1        2        5       18 </v>
   <v type="int" >        2        2        5        6       18 </v>
   <v type="int" >        2        5        6       18       22 </v>
   <v type="int" >        2        1        5       17       18 </v>
   <v type="int" >        2        5       17       18       21 </v>
   <v type="int" >        2        5       18       21       22 </v>
   <v type="int" >        2        2        3        6       19 </v>
   <v type="int" >        2        3        6        7       19 </v>
   <v type="int" >        2        6        7       19       23 </v>
   <v type="int" >        2        2        6       18       19 </v>
   <v type="int" >        2        6       18       19       22 </v>
   <v type="int" >        2        6       19       22       23 </v>
   <v type="int" >        2        3        4        7       20 </v>
   <v type="int" >        2        4        7        8       20 </v>
   <v type="int" >        2        7        8       20       24 </v>
   <v type="int" >        2        3        7       19       20 </v>
   <v type="int" >        2        7       19       20       23 </v>
   <v type="int" >        2        7       20       23       24 </v>
   <v type="int" >        2        1        4        8       17 </v>
   <v type="int" >        2        1        5        8       17 </v>
   <v type="int" >        2        5        8       17       21 </v>
   <v type="int" >        2        4        8       17       20 </v>
   <v type="int" >        2        8       17       20       24 </v>
   <v type="int" >        2        8       17       21       24 </v>
   <v type="int" >        2        5        6        9       22 </v>
   <v type="int" >        2        6        9       10       22 </v>
   <v type="int" >        2        9       10       22       26 </v>
   <v type="int" >        2        5        9       21       22 </v>
   <v type="int" >        2        9       21       22       25 </v>
   <v type="int" >        2        9       22       25       26 </v>
   <v type="int" >        2        6        7       10       23 </v>
   <v type="int" >        2        7       10       11       23 </v>
   <v type="int" >        2       10       11       23       27 </v>
   <v type="int" >        2        6       10       22       23 </v>
   <v type="int" >        2       10       22       23       26 </v>
   <v type="int" >        2       10       23       26       27 </v>
   <v type="int" >        2        7        8       11       24 </v>
   <v type="int" >        2        8       11       12       24 </v>
   <v type="int" >        2       11       12       24       28 </v>
   <v type="int" >        2        7       11       23       24 </v>
   <v type="int" >        2       11       23       24       27 </v>
   <v type="int" >        2       11       24       27       28 </v>
   <v type="int" >        2        5        8       12       21 </v>
   <v type="int" >        2        5        9       12       21 </v>
   <v type="int" >        2        9       12       21       25 </v>
   <v type="int" >        2        8       12       21       24 </v>
   <v type="int" >        2       12       21       24       28 </v>
   <v type="int" >        2       12       21       25       28 </v>
   <v type="int" >        2        9       10       13       26 </v>
   <v type="int" >        2       10       13       14       26 </v>
   <v type="int" >        2       13       14       26       30 </v>
   <v type="int" >        2        9       13       25       26 </v>
   <v type="int" >        2       13       25       26       29 </v>
   <v type="int" >        2       13       26       29       30 </v>
   <v type="int" >        2       10       11       14       27 </v>
   <v type="int" >        2       11       14       15       27 </v>
   <v type="int" >        2       14       15       27       31 </v>
   <v type="int" >        2       10       14       26       27 </v>
   <v type="int" >        2       14       26       27       30 </v>
   <v type="int" >        2       14       27       30       31 </v>
   <v type="int" >        2       11       12       15       28 </v>
   <v type="int" >        2       12       15       16       28 </v>
   <v type="int" >        2       15       16       28       32 </v>
   <v type="int" >        2       11       15       27       28 </v>
   <v type="int" >        2       15       27       28       31 </v>
   <v type="int" >        2       15       28       31       32 </v>
   <v type="int" >        2        9       12       16       25 </v>
   <v type="int" >        2        9       13       16       25 </v>
   <v type="int" >        2       13       16       25       29 </v>
   <v type="int" >        2       12       16       25       28 </v>
   <v type="int" >        2       16       25       28       32 </v>
   <v type="int" >        2       16       25       29       32 </v>
   <v type="int" >        2        1       13       14       30 </v>
   <v type="int" >        2        1        2       14       30 </v>
   <v type="int" >        2        1        2       18       30 </v>
   <v type="int" >        2        1       13       29       30 </v>
   <v type="int" >        2        1       17       29       30 </v>
   <v type="int" >        2        1       17       18       30 </v>
   <v type="int" >        2        2       14       15       31 </v>
   <v type="int" >        2        2        3       15       31 </v>
   <v type="int" >        2        2        3       19       31 </v>
   <v type="int" >        2        2       14       30       31 </v>
   <v type="int" >        2        2       18       30       31 </v>
   <v type="int" >        2        2       18       19       31 </v>
   <v type="int" >        2        3       15       16       32 </v>
   <v type="int" >        2        3        4       16       32 </v>
   <v type="int" >        2        3        4       20       32 </v>
   <v type="int" >        2        3       15       31       32 </v>
   <v type="int" >        2        3       19       31       32 </v>
   <v type="int" >        2        3       19       20       32 </v>
   <v type="int" >        2        4       13       16       29 </v>
   <v type="int" >        2        1        4       13       29 </v>
   <v type="int" >        2        1        4       17       29 </v>
   <v type="int" >        2        4       16       29       32 </v>
   <v type="int" >        2        4       20       29       32 </v>
   <v type="int" >        2        4       17       20       29 </v>
   <v type="int" >        2       17       18       21       31 </v>
   <v type="int" >        2       18       21       22       31 </v>
   <v type="int" >        2       21       22       27       31 </v>
   <v type="int" >        2       17       21       31       32 </v>
   <v type="int" >        2       21       28       31       32 </v>
   <v type="int" >        2       21       27       28       31 </v>
   <v type="int" >        2       18       19       22       30 </v>
   <v type="int" >        2       19       22       23       30 </v>
   <v type="int" >        2       22       23       26       30 </v>
   <v type="int" >        2       18       22       30       31 </v>
   <v type="int" >        2       22       27       30       31 </v>
   <v type="int" >        2       22       26       27       30 </v>
   <v type="int" >        2       19       20       23       29 </v>
   <v type="int" >        2       20       23       24       29 </v>
   <v type="int" >        2       23       24       25       29 </v>
   <v type="int" >        2       19       23       29       30 </v>
   <v type="int" >        2       23       26       29       30 </v>
   <v type="int" >        2       23       25       26       29 </v>
   <v type="int" >        2       17       20       24       32 </v>
   <v type="int" >        2       17       21       24       32 </v>
   <v type="int" >        2       21       24       28       32 </v>
   <v type="int" >        2       20       24       29       32 </v>
   <v type="int" >        2       24       25       29       32 </v>
   <v type="int" >        2       24       25       28       32 </v>
   <v type="int" >        2       21       22       25       27 </v>
   <v type="int" >        2       22       25       26       27 </v>
   <v type="int" >        2       23       25       26       27 </v>
   <v type="int" >        2       21       25       27       28 </v>
   <v type="int" >        2       24       25       27       28 </v>
   <v type="int" >        2       23       24       25       27 </v>
   <v type="int" >        2       22       23       26       26 </v>
   <v type="int" >        2       23       26       26       27 </v>
   <v type="int" >        2       22       26       26       27 </v>
   <v type="int" >        2       21       24       28       28 </v>
   <v type="int" >        2       21       25       28       28 </v>
   <v type="int" >        2       24       25       28       28 </v>
   <v type="int" >        2       17       19       29       30 </v>
   <v type="int" >        2       17       18       19       30 </v>
   <v type="int" >        2       17       18       19       31 </v>
   <v type="int" >        2       17       19       20       29 </v>
   <v type="int" >        2       17       19       20       32 </v>
   <v type="int" >        2       17       19       31       32 </v>
   <v type="int" >        2       18       18       30       31 </v>
   <v type="int" >        2       18       18       19       31 </v>
   <v type="int" >        2       18       18       19       30 </v>
   <v type="int" >        2       20       20       29       32 </v>
   <v type="int" >        2       17       20       20       29 </v>
   <v type="int" >        2       17       20       20       32 </v>
   <v type="int" >        2        2       12       15       16 </v>
   <v type="int" >        2        2       11       12       15 </v>
   <v type="int" >        2        2        6       11       12 </v>
   <v type="int" >        2        1        2       12       16 </v>
   <v type="int" >        2        1        2        5       12 </v>
   <v type="int" >        2        2        5        6       12 </v>
   <v type="int" >        2        3       11       14       15 </v>
   <v type="int" >        2        3       10       11       14 </v>
   <v type="int" >        2        3        7       10       11 </v>
   <v type="int" >        2        2        3       11       15 </v>
   <v type="int" >        2        2        3        6       11 </v>
   <v type="int" >        2        3        6        7       11 </v>
   <v type="int" >        2        4       10       13       14 </v>
   <v type="int" >        2        4        9       10       13 </v>
   <v type="int" >        2        4        8        9       10 </v>
   <v type="int" >        2        3        4       10       14 </v>
   <v type="int" >        2        3        4        7       10 </v>
   <v type="int" >        2        4        7        8       10 </v>
   <v type="int" >        2        1        9       13       16 </v>
   <v type="int" >        2        1        9       12       16 </v>
   <v type="int" >        2        1        5        9       12 </v>
   <v type="int" >        2        1        4        9       13 </v>
   <v type="int" >        2        1        4        8        9 </v>
   <v type="int" >        2        1        5        8        9 </v>
   <v type="int" >        2        6        8       11       12 </v>
   <v type="int" >        2        6        7        8       11 </v>
   <v type="int" >        2        6        7        8       10 </v>
   <v type="int" >        2        5        6        8       12 </v>
   <v type="int" >        2        5        6        8        9 </v>
   <v type="int" >        2        6        8        9       10 </v>
   <v type="int" >        2        7        7       10       11 </v>
   <v type="int" >        2        6        7        7       10 </v>
   <v type="int" >        2        6        7        7       11 </v>
   <v type="int" >        2        5        5        9       12 </v>
   <v type="int" >        2        5        5        8       12 </v>
   <v type="int" >        2        5        5        8        9 </v>
   <v type="int" >        2        3        4       14       16 </v>
   <v type="int" >        2        3       14       15       16 </v>
   <v type="int" >        2        2       14       15       16 </v>
   <v type="int" >        2        4       13       14       16 </v>
   <v type="int" >        2        1       13       14       16 </v>
   <v type="int" >        2        1        2       14       16 </v>
   <v type="int" >        2        2        3       15       15 </v>
   <v type="int" >        2        2       14       15       15 </v>
   <v type="int" >        2        3       14       15       15 </v>
   <v type="int" >        2        1        4       13       13 </v>
   <v type="int" >        2        4       13       13       16 </v>
   <v type="int" >        2        1       13       13       16 </v>
  </varray>
  <i name="volumeweight">      0.00260417 </i>
 </kpoints>
 <parameters>
  <separator name="general" >
   <i type="string" name="SYSTEM">unknown system</i>
   <i type="logical" name="LCOMPAT"> F  </i>
  </separator>
  <separator name="electronic" >
   <i type="string" name="PREC">accura</i>
   <i name="ENMAX">    424.27950000</i>
   <i name="ENAUG">    482.84800000</i>
   <i name="EDIFF">      0.00001000</i>
   <i type="int" name="IALGO">    38</i>
   <i type="int" name="IWAVPR">    11</i>
   <i type="int" name="NBANDS">   192</i>
   <i name="NELECT">    282.00000000</i>
   <i type="int" name="TURBO">     0</i>
   <i type="int" name="IRESTART">     0</i>
   <i type="int" name="NREBOOT">     0</i>
   <i type="int" name="NMIN">     0</i>
   <i name="EREF">      0.00000000</i>
   <separator name="electronic smearing" >
    <i type="int" name="ISMEAR">    -5</i>
    <i name="SIGMA">      0.05000000</i>
    <i name="KSPACING">      0.50000000</i>
    <i type="logical" name="KGAMMA"> T  </i>
   </separator>
   <separator name="electronic projectors" >
    <i type="logical" name="LREAL"> F  </i>
    <v name="ROPT">      0.00000000      0.00000000      0.00000000</v>
    <i type="int" name="LMAXPAW">  -100</i>
    <i type="int" name="LMAXMIX">     2</i>
    <i type="logical" name="NLSPLINE"> F  </i>
   </separator>
   <separator name="electronic startup" >
    <i type="int" name="ISTART">     0</i>
    <i type="int" name="ICHARG">     2</i>
    <i type="int" name="INIWAV">     1</i>
   </separator>
   <separator name="electronic spin" >
    <i type="int" name="ISPIN">     2</i>
    <i type="logical" name="LNONCOLLINEAR"> F  </i>
    <v name="MAGMOM">      1.00000000      1.00000000      1.00000000      1.00000000      1.00000000      1.00000000      1.00000000      1.00000000      1.00000000      1.00000000      1.00000000      1.00000000      1.00000000      1.00000000      1.00000000      1.00000000      1.00000000      1.00000000      1.00000000      1.00000000
      1.00000000      1.00000000      1.00000000      1.00000000      1.00000000      1.00000000      1.00000000      1.00000000      1.00000000      1.00000000      1.00000000      1.00000000      1.00000000      1.00000000      1.00000000      1.00000000      1.00000000      1.00000000      1.00000000</v>
    <i name="NUPDOWN">     -1.00000000</i>
    <i type="logical" name="LSORBIT"> F  </i>
    <v name="SAXIS">      0.00000000      0.00000000      1.00000000</v>
    <i type="logical" name="LSPIRAL"> F  </i>
    <v name="QSPIRAL">      0.00000000      0.00000000      0.00000000</v>
    <i type="logical" name="LZEROZ"> F  </i>
   </separator>
   <separator name="electronic exchange-correlation" >
    <i type="logical" name="LASPH"> F  </i>
    <i type="logical" name="LMETAGGA"> F  </i>
   </separator>
   <separator name="electronic convergence" >
    <i type="int" name="NELM">  2000</i>
    <i type="int" name="NELMDL">    -5</i>
    <i type="int" name="NELMIN">     2</i>
    <i name="ENINI">    424.27950000</i>
    <separator name="electronic convergence detail" >
     <i type="logical" name="LDIAG"> T  </i>
     <i type="logical" name="LSUBROT"> F  </i>
     <i name="WEIMIN">      0.00100000</i>
     <i name="EBREAK">      0.00000001</i>
     <i name="DEPER">      0.30000000</i>
     <i type="int" name="NRMM">     4</i>
     <i name="TIME">      0.40000000</i>
    </separator>
   </separator>
   <separator name="electronic mixer" >
    <i name="AMIX">      0.40000000</i>
    <i name="BMIX">      1.00000000</i>
    <i name="AMIN">      0.10000000</i>
    <i name="AMIX_MAG">      1.60000000</i>
    <i name="BMIX_MAG">      1.00000000</i>
    <separator name="electronic mixer details" >
     <i type="int" name="IMIX">     4</i>
     <i type="logical" name="MIXFIRST"> F  </i>
     <i type="int" name="MAXMIX">   -45</i>
     <i name="WC">    100.00000000</i>
     <i type="int" name="INIMIX">     1</i>
     <i type="int" name="MIXPRE">     1</i>
     <i type="int" name="MREMOVE">     5</i>
    </separator>
   </separator>
   <separator name="electronic dipolcorrection" >
    <i type="logical" name="LDIPOL"> F  </i>
    <i type="logical" name="LMONO"> F  </i>
    <i type="int" name="IDIPOL">     0</i>
    <i name="EPSILON">      1.00000000</i>
    <v name="DIPOL">   -100.00000000   -100.00000000   -100.00000000</v>
    <i name="EFIELD">      0.00000000</i>
   </separator>
  </separator>
  <separator name="grids" >
   <i type="int" name="NGX">    54</i>
   <i type="int" name="NGY">    54</i>
   <i type="int" name="NGZ">    54</i>
   <i type="int" name="NGXF">   108</i>
   <i type="int" name="NGYF">   108</i>
   <i type="int" name="NGZF">   108</i>
   <i type="logical" name="ADDGRID"> T  </i>
  </separator>
  <separator name="ionic" >
   <i type="int" name="NSW">     1</i>
   <i type="int" name="IBRION">     8</i>
   <i type="int" name="MDALGO">     0</i>
   <i type="int" name="ISIF">     2</i>
   <i name="PSTRESS">      0.00000000</i>
   <i name="EDIFFG">      0.00010000</i>
   <i type="int" name="NFREE">     0</i>
   <i name="POTIM">      0.50000000</i>
   <i name="SMASS">     -3.00000000</i>
   <i name="SCALEE">      1.00000000</i>
  </separator>
  <separator name="ionic md" >
   <i name="TEBEG">      0.00010000</i>
   <i name="TEEND">      0.00010000</i>
   <i type="int" name="NBLOCK">     1</i>
   <i type="int" name="KBLOCK">     1</i>
   <i type="int" name="NPACO">   256</i>
   <i name="APACO">     16.00000000</i>
  </separator>
  <separator name="symmetry" >
   <i type="int" name="ISYM">     2</i>
   <i name="SYMPREC">      0.00001000</i>
  </separator>
  <separator name="dos" >
   <i type="int" name="LORBIT">     0</i>
   <v name="RWIGS">     -1.00000000     -1.00000000     -1.00000000</v>
   <i type="int" name="NEDOS">   301</i>
   <i name="EMIN">     10.00000000</i>
   <i name="EMAX">    -10.00000000</i>
   <i name="EFERMI">      0.00000000</i>
  </separator>
  <separator name="writing" >
   <i type="int" name="NWRITE">     2</i>
   <i type="logical" name="LWAVE"> F  </i>
   <i type="logical" name="LDOWNSAMPLE"> F  </i>
   <i type="logical" name="LCHARG"> F  </i>
   <i type="logical" name="LPARD"> F  </i>
   <i type="logical" name="LVTOT"> F  </i>
   <i type="logical" name="LVHAR"> F  </i>
   <i type="logical" name="LELF"> F  </i>
   <i type="logical" name="LOPTICS"> F  </i>
   <v name="STM">      0.00000000      0.00000000      0.00000000      0.00000000      0.00000000      0.00000000      0.00000000</v>
  </separator>
  <separator name="performance" >
   <i type="int" name="NPAR">    48</i>
   <i type="int" name="NSIM">     4</i>
   <i type="int" name="NBLK">    -1</i>
   <i type="logical" name="LPLANE"> T  </i>
   <i type="logical" name="LSCALAPACK"> T  </i>
   <i type="logical" name="LSCAAWARE"> F  </i>
   <i type="logical" name="LSCALU"> F  </i>
   <i type="logical" name="LASYNC"> F  </i>
   <i type="logical" name="LORBITALREAL"> F  </i>
  </separator>
  <separator name="miscellaneous" >
   <i type="int" name="IDIOT">     3</i>
   <i type="int" name="ISPECIAL">     0</i>
   <i type="logical" name="LMUSIC"> F  </i>
   <v name="POMASS">     40.07800000     47.88000000     16.00000000</v>
   <v name="DARWINR">      0.00000000      0.00000000      0.00000000</v>
   <v name="DARWINV">      1.00000000      1.00000000      1.00000000</v>
   <i type="logical" name="LCORR"> T  </i>
  </separator>
  <i type="logical" name="GGA_COMPAT"> T  </i>
  <i type="logical" name="LBERRY"> F  </i>
  <i type="int" name="ICORELEVEL">     0</i>
  <i type="logical" name="LDAU"> F  </i>
  <i type="int" name="I_CONSTRAINED_M">     0</i>
  <separator name="electronic exchange-correlation" >
   <i type="string" name="GGA">--</i>
   <i type="int" name="VOSKOWN">     0</i>
   <i type="logical" name="LHFCALC"> F  </i>
   <i type="string" name="PRECFOCK"></i>
   <i type="logical" name="LSYMGRAD"> F  </i>
   <i type="logical" name="LHFONE"> F  </i>
   <i type="logical" name="LRHFCALC"> F  </i>
   <i type="logical" name="LTHOMAS"> F  </i>
   <i type="logical" name="LMODELHF"> F  </i>
   <i name="ENCUT4O">     -1.00000000</i>
   <i type="int" name="EXXOEP">     0</i>
   <i type="int" name="FOURORBIT">     0</i>
   <i name="AEXX">      0.00000000</i>
   <i name="HFALPHA">      0.00000000</i>
   <i name="MCALPHA">      0.00000000</i>
   <i name="ALDAX">      1.00000000</i>
   <i name="AGGAX">      1.00000000</i>
   <i name="ALDAC">      1.00000000</i>
   <i name="AGGAC">      1.00000000</i>
   <i type="int" name="NKREDX">     1</i>
   <i type="int" name="NKREDY">     1</i>
   <i type="int" name="NKREDZ">     1</i>
   <i type="logical" name="SHIFTRED"> F  </i>
   <i type="logical" name="ODDONLY"> F  </i>
   <i type="logical" name="EVENONLY"> F  </i>
   <i type="int" name="LMAXFOCK">     0</i>
   <i type="int" name="NMAXFOCKAE">     0</i>
   <i type="logical" name="LFOCKAEDFT"> F  </i>
   <i name="HFSCREEN">      0.00000000</i>
   <i name="HFSCREENC">      0.00000000</i>
   <i type="int" name="NBANDSGWLOW">     0</i>
  </separator>
  <separator name="vdW DFT" >
   <i type="logical" name="LUSE_VDW"> F  </i>
   <i name="Zab_VDW">     -0.84910000</i>
   <i name="PARAM1">      0.12340000</i>
   <i name="PARAM2">      1.00000000</i>
   <i name="PARAM3">      0.00000000</i>
  </separator>
  <separator name="model GW" >
   <i type="int" name="MODEL_GW">     0</i>
   <i name="MODEL_EPS0">      7.51956247</i>
   <i name="MODEL_ALPHA">      1.00000000</i>
  </separator>
  <separator name="linear response parameters" >
   <i type="logical" name="LEPSILON"> F  </i>
   <i type="logical" name="LRPA"> F  </i>
   <i type="logical" name="LNABLA"> F  </i>
   <i type="logical" name="LVEL"> F  </i>
   <i type="int" name="KINTER">     0</i>
   <i name="CSHIFT">      0.10000000</i>
   <i name="OMEGAMAX">     -1.00000000</i>
   <i name="DEG_THRESHOLD">      0.00200000</i>
   <i name="RTIME">     -0.10000000</i>
   <i name="WPLASMAI">      0.00000000</i>
   <v name="DFIELD">      0.00000000      0.00000000      0.00000000</v>
   <v name="WPLASMA">      0.00000000      0.00000000      0.00000000      0.00000000      0.00000000      0.00000000      0.00000000      0.00000000      0.00000000</v>
  </separator>
  <separator name="orbital magnetization" >
   <i type="logical" name="NUCIND"> F  </i>
   <v name="MAGPOS">      0.00000000      0.00000000      0.00000000</v>
   <i type="logical" name="LNICSALL"> T  </i>
   <i type="logical" name="ORBITALMAG"> F  </i>
   <i type="logical" name="LMAGBLOCH"> F  </i>
   <i type="logical" name="LCHIMAG"> F  </i>
   <i type="logical" name="LGAUGE"> T  </i>
   <i type="int" name="MAGATOM">     0</i>
   <v name="MAGDIPOL">      0.00000000      0.00000000      0.00000000</v>
   <v name="AVECCONST">      0.00000000      0.00000000      0.00000000</v>
  </separator>
  <separator name="response functions" >
   <i type="logical" name="LADDER"> F  </i>
   <i type="logical" name="LRPAFORCE"> F  </i>
   <i type="logical" name="LFXC"> F  </i>
   <i type="logical" name="LHARTREE"> T  </i>
   <i type="int" name="IBSE">     0</i>
   <v type="int" name="KPOINT">    -1     0     0     0</v>
   <i type="logical" name="LTCTE"> F  </i>
   <i type="logical" name="LTETE"> F  </i>
   <i type="logical" name="LTRIPLET"> F  </i>
   <i type="logical" name="LFXCEPS"> F  </i>
   <i type="logical" name="LFXHEG"> F  </i>
   <i type="int" name="NATURALO">     2</i>
   <i type="logical" name="L2ORDER"> F  </i>
   <i type="logical" name="LMP2LT"> F  </i>
   <i type="logical" name="LUSEW"> F  </i>
   <i name="ENCUTGW">     -2.00000000</i>
   <i name="ENCUTGWSOFT">     -2.00000000</i>
   <i name="ENCUTLF">     -1.00000000</i>
   <i type="int" name="LMAXMP2">    -1</i>
   <i name="SCISSOR">      0.00000000</i>
   <i type="int" name="NOMEGA">     0</i>
   <i type="int" name="NOMEGAR">     0</i>
   <i type="int" name="NBANDSGW">    -1</i>
   <i type="int" name="NBANDSO">    -1</i>
   <i type="int" name="NBANDSV">    -1</i>
   <i type="int" name="NELM">  2000</i>
   <i type="int" name="NELMHF">     1</i>
   <i type="int" name="DIM">     3</i>
   <i type="int" name="ANTIRES">     0</i>
   <i name="OMEGAMAX">    -30.00000000</i>
   <i name="OMEGAMIN">    -30.00000000</i>
   <i name="OMEGATL">   -200.00000000</i>
   <i type="int" name="OMEGAGRID">   140</i>
   <i name="CSHIFT">     -0.10000000</i>
   <i type="logical" name="SELFENERGY"> F  </i>
   <i type="logical" name="LSPECTRAL"> F  </i>
   <i type="logical" name="LSPECTRALGW"> F  </i>
   <i type="logical" name="LSINGLES"> F  </i>
   <i type="logical" name="LFERMIGW"> F  </i>
   <i type="logical" name="ODDONLYGW"> F  </i>
   <i type="logical" name="EVENONLYGW"> F  </i>
   <i type="int" name="NKREDLFX">     1</i>
   <i type="int" name="NKREDLFY">     1</i>
   <i type="int" name="NKREDLFZ">     1</i>
   <i type="int" name="MAXMEM">  2800</i>
   <i type="int" name="TELESCOPE">     0</i>
   <i type="int" name="TAUPAR">     1</i>
   <i type="int" name="OMEGAPAR">    -1</i>
   <i name="LAMBDA">      1.00000000</i>
  </separator>
  <separator name="External order field" >
   <i name="OFIELD_KAPPA">      0.00000000</i>
   <v name="OFIELD_K">      0.00000000      0.00000000      0.00000000</v>
   <i name="OFIELD_Q6_NEAR">      0.00000000</i>
   <i name="OFIELD_Q6_FAR">      0.00000000</i>
   <i name="OFIELD_A">      0.00000000</i>
  </separator>
 </parameters>
 <atominfo>
  <atoms>      39 </atoms>
  <types>       3 </types>
  <array name="atoms" >
   <dimension dim="1">ion</dimension>
   <field type="string">element</field>
   <field type="int">atomtype</field>
   <set>
    <rc><c>Ca</c><c>   1</c></rc>
    <rc><c>Ca</c><c>   1</c></rc>
    <rc><c>Ca</c><c>   1</c></rc>
    <rc><c>Ca</c><c>   1</c></rc>
    <rc><c>Ca</c><c>   1</c></rc>
    <rc><c>Ca</c><c>   1</c></rc>
    <rc><c>Ca</c><c>   1</c></rc>
    <rc><c>Ca</c><c>   1</c></rc>
    <rc><c>Ti</c><c>   2</c></rc>
    <rc><c>Ti</c><c>   2</c></rc>
    <rc><c>Ti</c><c>   2</c></rc>
    <rc><c>Ti</c><c>   2</c></rc>
    <rc><c>Ti</c><c>   2</c></rc>
    <rc><c>Ti</c><c>   2</c></rc>
    <rc><c>Ti</c><c>   2</c></rc>
    <rc><c>Ti</c><c>   2</c></rc>
    <rc><c>O </c><c>   3</c></rc>
    <rc><c>O </c><c>   3</c></rc>
    <rc><c>O </c><c>   3</c></rc>
    <rc><c>O </c><c>   3</c></rc>
    <rc><c>O </c><c>   3</c></rc>
    <rc><c>O </c><c>   3</c></rc>
    <rc><c>O </c><c>   3</c></rc>
    <rc><c>O </c><c>   3</c></rc>
    <rc><c>O </c><c>   3</c></rc>
    <rc><c>O </c><c>   3</c></rc>
    <rc><c>O </c><c>   3</c></rc>
    <rc><c>O </c><c>   3</c></rc>
    <rc><c>O </c><c>   3</c></rc>
    <rc><c>O </c><c>   3</c></rc>
    <rc><c>O </c><c>   3</c></rc>
    <rc><c>O </c><c>   3</c></rc>
    <rc><c>O </c><c>   3</c></rc>
    <rc><c>O </c><c>   3</c></rc>
    <rc><c>O </c><c>   3</c></rc>
    <rc><c>O </c><c>   3</c></rc>
    <rc><c>O </c><c>   3</c></rc>
    <rc><c>O </c><c>   3</c></rc>
    <rc><c>O </c><c>   3</c></rc>
   </set>
  </array>
  <array name="atomtypes" >
   <dimension dim="1">type</dimension>
   <field type="int">atomspertype</field>
   <field type="string">element</field>
   <field>mass</field>
   <field>valence</field>
   <field type="string">pseudopotential</field>
   <set>
    <rc><c>   8</c><c>Ca</c><c>     40.07800000</c><c>      8.00000000</c><c>  PAW_PBE Ca_pv 06Sep2000               </c></rc>
    <rc><c>   8</c><c>Ti</c><c>     47.88000000</c><c>     10.00000000</c><c>  PAW_PBE Ti_pv 07Sep2000               </c></rc>
    <rc><c>  23</c><c>O </c><c>     16.00000000</c><c>      6.00000000</c><c>  PAW_PBE O_s 07Sep2000                 </c></rc>
   </set>
  </array>
 </atominfo>
 <structure name="initialpos" >
  <crystal>
   <varray name="basis" >
    <v>       7.87856000       0.00008300       0.00615600 </v>
    <v>      -0.00004900       7.87418100       0.00005200 </v>
    <v>       0.00626800      -0.00009600       7.87868900 </v>
   </varray>
   <i name="volume">    488.77156024 </i>
   <varray name="rec_basis" >
    <v>       0.12692683       0.00000079      -0.00010098 </v>
    <v>      -0.00000134       0.12699733       0.00000155 </v>
    <v>      -0.00009917      -0.00000084       0.12692475 </v>
   </varray>
  </crystal>
  <varray name="positions" >
   <v>       0.02006400       0.98512700       0.97980700 </v>
   <v>       0.01670600       0.97996800       0.49694900 </v>
   <v>       0.97811700       0.50268200       0.01624500 </v>
   <v>       0.98515700       0.49818600       0.54046900 </v>
   <v>       0.51491700       0.99672500       0.98773600 </v>
   <v>       0.52514500       0.98724700       0.49814400 </v>
   <v>       0.48050900       0.51045300       0.01836700 </v>
   <v>       0.47478100       0.51095400       0.53756800 </v>
   <v>       0.23314600       0.24228500       0.25923600 </v>
   <v>       0.25486200       0.24900800       0.76574700 </v>
   <v>       0.24603700       0.74086600       0.25525900 </v>
   <v>       0.25079200       0.75192900       0.75864900 </v>
   <v>       0.77067200       0.23544800       0.25739600 </v>
   <v>       0.74577200       0.25213100       0.76654700 </v>
   <v>       0.74886400       0.73611500       0.26190300 </v>
   <v>       0.74835000       0.74870600       0.76038400 </v>
   <v>       0.69107900       0.01265700       0.22883000 </v>
   <v>       0.29942900       0.21714400       0.00083100 </v>
   <v>       0.00100700       0.21149900       0.19391800 </v>
   <v>       0.28357100       0.01048500       0.30003300 </v>
   <v>       0.22104600       0.29863200       0.49059700 </v>
   <v>       0.00064000       0.28835600       0.78859100 </v>
   <v>       0.20743400       0.00244600       0.72761900 </v>
   <v>       0.28795800       0.79065000       0.00378200 </v>
   <v>       0.00018900       0.79056800       0.21803400 </v>
   <v>       0.22752700       0.50261100       0.20217800 </v>
   <v>       0.20987000       0.71649600       0.50268500 </v>
   <v>       0.99933000       0.71787700       0.79259300 </v>
   <v>       0.29088400       0.50237300       0.78089300 </v>
   <v>       0.70301200       0.29245200       0.00229500 </v>
   <v>       0.79078400       0.21471800       0.49366300 </v>
   <v>       0.50074400       0.21722800       0.70660700 </v>
   <v>       0.77323600       0.00261200       0.79737300 </v>
   <v>       0.71239500       0.71675000       0.00471100 </v>
   <v>       0.50126000       0.70815100       0.29425000 </v>
   <v>       0.79546300       0.50009200       0.28010200 </v>
   <v>       0.78498300       0.78888500       0.50311100 </v>
   <v>       0.49913200       0.78182900       0.71719300 </v>
   <v>       0.72469400       0.50194400       0.71059600 </v>
  </varray>
 </structure>
 <calculation>
  <scstep>
   <time name="dav">   43.03   43.61</time>
   <time name="total">   43.61   44.41</time>
   <energy>
    <i name="alphaZ">   1170.71118258 </i>
    <i name="ewald"> -17471.64329181 </i>
    <i name="hartreedc">  -5417.39415319 </i>
    <i name="XCdc">   1056.09408619 </i>
    <i name="pawpsdc">  17970.44135177 </i>
    <i name="pawaedc"> -18047.97818081 </i>
    <i name="eentropy">      0.00000000 </i>
    <i name="bandstr">    784.64718982 </i>
    <i name="atom">  23186.49350644 </i>
    <i name="e_fr_energy">   3231.37169098 </i>
    <i name="e_wo_entrp">   3231.37169098 </i>
    <i name="e_0_energy">   3231.37169098 </i>
   </energy>
  </scstep>
  <scstep>
   <time name="dav">   40.13   40.44</time>
   <time name="total">   40.25   40.56</time>
   <energy>
    <i name="e_fr_energy">    200.28471444 </i>
    <i name="e_wo_entrp">    200.28471444 </i>
    <i name="e_0_energy">    200.28471444 </i>
   </energy>
  </scstep>
  <scstep>
   <time name="dav">   43.86   44.46</time>
   <time name="total">   43.89   44.48</time>
   <energy>
    <i name="e_fr_energy">   -356.33357052 </i>
    <i name="e_wo_entrp">   -356.33357052 </i>
    <i name="e_0_energy">   -356.33357052 </i>
   </energy>
  </scstep>
  <scstep>
   <time name="dav">   53.65   54.34</time>
   <time name="total">   53.67   54.36</time>
   <energy>
    <i name="e_fr_energy">   -379.33335800 </i>
    <i name="e_wo_entrp">   -379.33335800 </i>
    <i name="e_0_energy">   -379.33335800 </i>
   </energy>
  </scstep>
  <scstep>
   <time name="dav">   61.66   62.22</time>
   <time name="total">   63.15   63.74</time>
   <energy>
    <i name="e_fr_energy">   -380.22349899 </i>
    <i name="e_wo_entrp">   -380.22349899 </i>
    <i name="e_0_energy">   -380.22349899 </i>
   </energy>
  </scstep>
  <scstep>
   <time name="dav">   58.23   58.66</time>
   <time name="total">   60.43   60.87</time>
   <energy>
    <i name="e_fr_energy">   -307.31809119 </i>
    <i name="e_wo_entrp">   -307.31809119 </i>
    <i name="e_0_energy">   -307.31809119 </i>
   </energy>
  </scstep>
  <scstep>
   <time name="dav">   51.85   52.26</time>
   <time name="total">   54.10   54.53</time>
   <energy>
    <i name="e_fr_energy">   -310.81338475 </i>
    <i name="e_wo_entrp">   -310.81338475 </i>
    <i name="e_0_energy">   -310.81338475 </i>
   </energy>
  </scstep>
  <scstep>
   <time name="dav">   56.48   57.32</time>
   <time name="total">   58.70   59.57</time>
   <energy>
    <i name="e_fr_energy">   -313.97878685 </i>
    <i name="e_wo_entrp">   -313.97878685 </i>
    <i name="e_0_energy">   -313.97878685 </i>
   </energy>
  </scstep>
  <scstep>
   <time name="dav">   53.16   53.65</time>
   <time name="total">   55.42   55.92</time>
   <energy>
    <i name="e_fr_energy">   -313.13360083 </i>
    <i name="e_wo_entrp">   -313.13360083 </i>
    <i name="e_0_energy">   -313.13360083 </i>
   </energy>
  </scstep>
  <scstep>
   <time name="dav">   56.62   57.05</time>
   <time name="total">   58.73   59.17</time>
   <energy>
    <i name="e_fr_energy">   -311.69400330 </i>
    <i name="e_wo_entrp">   -311.69400330 </i>
    <i name="e_0_energy">   -311.69400330 </i>
   </energy>
  </scstep>
  <scstep>
   <time name="dav">   52.25   52.66</time>
   <time name="total">   54.35   54.84</time>
   <energy>
    <i name="e_fr_energy">   -311.54114316 </i>
    <i name="e_wo_entrp">   -311.54114316 </i>
    <i name="e_0_energy">   -311.54114316 </i>
   </energy>
  </scstep>
  <scstep>
   <time name="dav">   55.76   56.10</time>
   <time name="total">   57.89   58.25</time>
   <energy>
    <i name="e_fr_energy">   -311.54236532 </i>
    <i name="e_wo_entrp">   -311.54236532 </i>
    <i name="e_0_energy">   -311.54236532 </i>
   </energy>
  </scstep>
  <scstep>
   <time name="dav">   54.65   55.21</time>
   <time name="total">   56.86   57.43</time>
   <energy>
    <i name="e_fr_energy">   -311.53908707 </i>
    <i name="e_wo_entrp">   -311.53908707 </i>
    <i name="e_0_energy">   -311.53908707 </i>
   </energy>
  </scstep>
  <scstep>
   <time name="dav">   50.60   51.27</time>
   <time name="total">   52.69   53.48</time>
   <energy>
    <i name="e_fr_energy">   -311.53874630 </i>
    <i name="e_wo_entrp">   -311.53874630 </i>
    <i name="e_0_energy">   -311.53874630 </i>
   </energy>
  </scstep>
  <scstep>
   <time name="dav">   54.71   55.22</time>
   <time name="total">   56.92   57.45</time>
   <energy>
    <i name="e_fr_energy">   -311.53757418 </i>
    <i name="e_wo_entrp">   -311.53757418 </i>
    <i name="e_0_energy">   -311.53757418 </i>
   </energy>
  </scstep>
  <scstep>
   <time name="dav">   53.98   54.44</time>
   <time name="total">   56.21   56.69</time>
   <energy>
    <i name="e_fr_energy">   -311.53715723 </i>
    <i name="e_wo_entrp">   -311.53715723 </i>
    <i name="e_0_energy">   -311.53715723 </i>
   </energy>
  </scstep>
  <scstep>
   <time name="dav">   53.46   54.03</time>
   <time name="total">   55.65   56.23</time>
   <energy>
    <i name="e_fr_energy">   -311.53698299 </i>
    <i name="e_wo_entrp">   -311.53698299 </i>
    <i name="e_0_energy">   -311.53698299 </i>
   </energy>
  </scstep>
  <scstep>
   <time name="dav">   52.31   53.00</time>
   <time name="total">   54.39   55.22</time>
   <energy>
    <i name="e_fr_energy">   -311.53702875 </i>
    <i name="e_wo_entrp">   -311.53702875 </i>
    <i name="e_0_energy">   -311.53702875 </i>
   </energy>
  </scstep>
  <scstep>
   <time name="dav">   51.86   52.35</time>
   <time name="total">   54.04   54.55</time>
   <energy>
    <i name="e_fr_energy">   -311.53703904 </i>
    <i name="e_wo_entrp">   -311.53703904 </i>
    <i name="e_0_energy">   -311.53703904 </i>
   </energy>
  </scstep>
  <scstep>
   <time name="dav">   45.71   46.09</time>
   <time name="total">   46.49   46.88</time>
   <energy>
    <i name="alphaZ">   1170.71118258 </i>
    <i name="ewald"> -17471.64329181 </i>
    <i name="hartreedc">  -5502.59458871 </i>
    <i name="XCdc">   1065.06298170 </i>
    <i name="pawpsdc">  32920.11753234 </i>
    <i name="pawaedc"> -33030.55951005 </i>
    <i name="eentropy">      0.00000000 </i>
    <i name="bandstr">  -2649.12484688 </i>
    <i name="atom">  23186.49350644 </i>
    <i name="e_fr_energy">   -311.53703440 </i>
    <i name="e_wo_entrp">   -311.53703440 </i>
    <i name="e_0_energy">   -311.53703440 </i>
   </energy>
  </scstep>
  <structure>
   <crystal>
    <varray name="basis" >
     <v>       7.87856000       0.00008300       0.00615600 </v>
     <v>      -0.00004900       7.87418100       0.00005200 </v>
     <v>       0.00626800      -0.00009600       7.87868900 </v>
    </varray>
    <i name="volume">    488.77156024 </i>
    <varray name="rec_basis" >
     <v>       0.12692683       0.00000079      -0.00010098 </v>
     <v>      -0.00000134       0.12699733       0.00000155 </v>
     <v>      -0.00009917      -0.00000084       0.12692475 </v>
    </varray>
   </crystal>
   <varray name="positions" >
    <v>       0.02006400       0.98512700       0.97980700 </v>
    <v>       0.01670600       0.97996800       0.49694900 </v>
    <v>       0.97811700       0.50268200       0.01624500 </v>
    <v>       0.98515700       0.49818600       0.54046900 </v>
    <v>       0.51491700       0.99672500       0.98773600 </v>
    <v>       0.52514500       0.98724700       0.49814400 </v>
    <v>       0.48050900       0.51045300       0.01836700 </v>
    <v>       0.47478100       0.51095400       0.53756800 </v>
    <v>       0.23314600       0.24228500       0.25923600 </v>
    <v>       0.25486200       0.24900800       0.76574700 </v>
    <v>       0.24603700       0.74086600       0.25525900 </v>
    <v>       0.25079200       0.75192900       0.75864900 </v>
    <v>       0.77067200       0.23544800       0.25739600 </v>
    <v>       0.74577200       0.25213100       0.76654700 </v>
    <v>       0.74886400       0.73611500       0.26190300 </v>
    <v>       0.74835000       0.74870600       0.76038400 </v>
    <v>       0.69107900       0.01265700       0.22883000 </v>
    <v>       0.29942900       0.21714400       0.00083100 </v>
    <v>       0.00100700       0.21149900       0.19391800 </v>
    <v>       0.28357100       0.01048500       0.30003300 </v>
    <v>       0.22104600       0.29863200       0.49059700 </v>
    <v>       0.00064000       0.28835600       0.78859100 </v>
    <v>       0.20743400       0.00244600       0.72761900 </v>
    <v>       0.28795800       0.79065000       0.00378200 </v>
    <v>       0.00018900       0.79056800       0.21803400 </v>
    <v>       0.22752700       0.50261100       0.20217800 </v>
    <v>       0.20987000       0.71649600       0.50268500 </v>
    <v>       0.99933000       0.71787700       0.79259300 </v>
    <v>       0.29088400       0.50237300       0.78089300 </v>
    <v>       0.70301200       0.29245200       0.00229500 </v>
    <v>       0.79078400       0.21471800       0.49366300 </v>
    <v>       0.50074400       0.21722800       0.70660700 </v>
    <v>       0.77323600       0.00261200       0.79737300 </v>
    <v>       0.71239500       0.71675000       0.00471100 </v>
    <v>       0.50126000       0.70815100       0.29425000 </v>
    <v>       0.79546300       0.50009200       0.28010200 </v>
    <v>       0.78498300       0.78888500       0.50311100 </v>
    <v>       0.49913200       0.78182900       0.71719300 </v>
    <v>       0.72469400       0.50194400       0.71059600 </v>
   </varray>
  </structure>
  <varray name="forces" >
   <v>       0.00433795      -0.00922463       0.00762967 </v>
   <v>       0.00200012      -0.01230324      -0.00224179 </v>
   <v>      -0.00141304       0.00976440      -0.01307999 </v>
   <v>       0.00491780       0.00892603      -0.00095366 </v>
   <v>      -0.00073884      -0.01275698       0.00051021 </v>
   <v>       0.00250653      -0.00523032      -0.00415982 </v>
   <v>      -0.01016369       0.01325948      -0.00375986 </v>
   <v>      -0.00365167       0.01235111       0.00483453 </v>
   <v>       0.00268405      -0.01096534      -0.00952292 </v>
   <v>       0.00876864       0.01436559      -0.01383269 </v>
   <v>       0.01166778      -0.00025881      -0.00611058 </v>
   <v>      -0.01041555      -0.00087634      -0.01468588 </v>
   <v>       0.00448023      -0.00652754       0.00945717 </v>
   <v>      -0.00443479       0.00940595      -0.01781822 </v>
   <v>      -0.01241508       0.00139866      -0.01489196 </v>
   <v>       0.00235806       0.00399557      -0.01250131 </v>
   <v>      -0.00841762       0.00351040       0.00731468 </v>
   <v>      -0.00777520       0.00024858       0.01653202 </v>
   <v>      -0.00568989       0.00063412      -0.00834321 </v>
   <v>       0.00622958       0.02104802       0.00401988 </v>
   <v>       0.01517869      -0.00798116       0.01045303 </v>
   <v>       0.00574798      -0.00100245       0.00704854 </v>
   <v>       0.00645920       0.01095127       0.00575719 </v>
   <v>      -0.00492664       0.00073936       0.00997868 </v>
   <v>      -0.00396719       0.00661245      -0.00310232 </v>
   <v>      -0.00356299      -0.00012436       0.00718847 </v>
   <v>       0.00631397      -0.00575068       0.00332726 </v>
   <v>      -0.00115511       0.00133414       0.00797587 </v>
   <v>      -0.00005660      -0.02684153      -0.00525160 </v>
   <v>       0.01013217      -0.00496259      -0.00363006 </v>
   <v>      -0.00587537      -0.00108037      -0.00131419 </v>
   <v>       0.00154776      -0.00327712       0.00269461 </v>
   <v>      -0.00636699       0.01223505      -0.00318553 </v>
   <v>       0.00839089      -0.01175471       0.01676839 </v>
   <v>      -0.00149474       0.01271476      -0.00811130 </v>
   <v>       0.00324075      -0.01488367       0.00524132 </v>
   <v>      -0.00268709      -0.00152110       0.00317432 </v>
   <v>      -0.00923029      -0.00074159       0.00415376 </v>
   <v>      -0.00252378      -0.00543043       0.01243728 </v>
  </varray>
  <varray name="stress" >
   <v>     -73.69482639       0.38830367     -12.44974741 </v>
   <v>       0.38830398     -79.94482617      -2.88191531 </v>
   <v>     -12.44974768      -2.88191561     -74.85547085 </v>
  </varray>
  <energy>
   <i name="e_fr_energy">   -311.53703440 </i>
   <i name="e_wo_entrp">   -311.53703440 </i>
   <i name="e_0_energy">      0.00000000 </i>
  </energy>
  <kpoints>
   <generation param="Monkhorst-Pack">
    <v type="int" name="divisions">       4        4        4 </v>
    <v name="usershift">      0.00000000       0.00000000       0.00000000 </v>
    <v name="genvec1">      0.25000000      -0.00000000       0.00000000 </v>
    <v name="genvec2">     -0.00000000       0.25000000      -0.00000000 </v>
    <v name="genvec3">      0.00000000       0.00000000       0.25000000 </v>
    <v name="shift">      0.50000000       0.50000000       0.50000000 </v>
   </generation>
   <varray name="kpointlist" >
    <v>       0.12500000       0.12500000       0.12500000 </v>
    <v>       0.37500000       0.12500000       0.12500000 </v>
    <v>      -0.37500000       0.12500000       0.12500000 </v>
    <v>      -0.12500000       0.12500000       0.12500000 </v>
    <v>       0.12500000       0.37500000       0.12500000 </v>
    <v>       0.37500000       0.37500000       0.12500000 </v>
    <v>      -0.37500000       0.37500000       0.12500000 </v>
    <v>      -0.12500000       0.37500000       0.12500000 </v>
    <v>       0.12500000      -0.37500000       0.12500000 </v>
    <v>       0.37500000      -0.37500000       0.12500000 </v>
    <v>      -0.37500000      -0.37500000       0.12500000 </v>
    <v>      -0.12500000      -0.37500000       0.12500000 </v>
    <v>       0.12500000      -0.12500000       0.12500000 </v>
    <v>       0.37500000      -0.12500000       0.12500000 </v>
    <v>      -0.37500000      -0.12500000       0.12500000 </v>
    <v>      -0.12500000      -0.12500000       0.12500000 </v>
    <v>       0.12500000       0.12500000       0.37500000 </v>
    <v>       0.37500000       0.12500000       0.37500000 </v>
    <v>      -0.37500000       0.12500000       0.37500000 </v>
    <v>      -0.12500000       0.12500000       0.37500000 </v>
    <v>       0.12500000       0.37500000       0.37500000 </v>
    <v>       0.37500000       0.37500000       0.37500000 </v>
    <v>      -0.37500000       0.37500000       0.37500000 </v>
    <v>      -0.12500000       0.37500000       0.37500000 </v>
    <v>       0.12500000      -0.37500000       0.37500000 </v>
    <v>       0.37500000      -0.37500000       0.37500000 </v>
    <v>      -0.37500000      -0.37500000       0.37500000 </v>
    <v>      -0.12500000      -0.37500000       0.37500000 </v>
    <v>       0.12500000      -0.12500000       0.37500000 </v>
    <v>       0.37500000      -0.12500000       0.37500000 </v>
    <v>      -0.37500000      -0.12500000       0.37500000 </v>
    <v>      -0.12500000      -0.12500000       0.37500000 </v>
   </varray>
   <varray name="weights" >
    <v>       0.03125000 </v>
    <v>       0.03125000 </v>
    <v>       0.03125000 </v>
    <v>       0.03125000 </v>
    <v>       0.03125000 </v>
    <v>       0.03125000 </v>
    <v>       0.03125000 </v>
    <v>       0.03125000 </v>
    <v>       0.03125000 </v>
    <v>       0.03125000 </v>
    <v>       0.03125000 </v>
    <v>       0.03125000 </v>
    <v>       0.03125000 </v>
    <v>       0.03125000 </v>
    <v>       0.03125000 </v>
    <v>       0.03125000 </v>
    <v>       0.03125000 </v>
    <v>       0.03125000 </v>
    <v>       0.03125000 </v>
    <v>       0.03125000 </v>
    <v>       0.03125000 </v>
    <v>       0.03125000 </v>
    <v>       0.03125000 </v>
    <v>       0.03125000 </v>
    <v>       0.03125000 </v>
    <v>       0.03125000 </v>
    <v>       0.03125000 </v>
    <v>       0.03125000 </v>
    <v>       0.03125000 </v>
    <v>       0.03125000 </v>
    <v>       0.03125000 </v>
    <v>       0.03125000 </v>
   </varray>
   <varray name="tetrahedronlist"  type="int" >
    <v type="int" >        2        1        2        5       18 </v>
    <v type="int" >        2        2        5        6       18 </v>
    <v type="int" >        2        5        6       18       22 </v>
    <v type="int" >        2        1        5       17       18 </v>
    <v type="int" >        2        5       17       18       21 </v>
    <v type="int" >        2        5       18       21       22 </v>
    <v type="int" >        2        2        3        6       19 </v>
    <v type="int" >        2        3        6        7       19 </v>
    <v type="int" >        2        6        7       19       23 </v>
    <v type="int" >        2        2        6       18       19 </v>
    <v type="int" >        2        6       18       19       22 </v>
    <v type="int" >        2        6       19       22       23 </v>
    <v type="int" >        2        3        4        7       20 </v>
    <v type="int" >        2        4        7        8       20 </v>
    <v type="int" >        2        7        8       20       24 </v>
    <v type="int" >        2        3        7       19       20 </v>
    <v type="int" >        2        7       19       20       23 </v>
    <v type="int" >        2        7       20       23       24 </v>
    <v type="int" >        2        1        4        8       17 </v>
    <v type="int" >        2        1        5        8       17 </v>
    <v type="int" >        2        5        8       17       21 </v>
    <v type="int" >        2        4        8       17       20 </v>
    <v type="int" >        2        8       17       20       24 </v>
    <v type="int" >        2        8       17       21       24 </v>
    <v type="int" >        2        5        6        9       22 </v>
    <v type="int" >        2        6        9       10       22 </v>
    <v type="int" >        2        9       10       22       26 </v>
    <v type="int" >        2        5        9       21       22 </v>
    <v type="int" >        2        9       21       22       25 </v>
    <v type="int" >        2        9       22       25       26 </v>
    <v type="int" >        2        6        7       10       23 </v>
    <v type="int" >        2        7       10       11       23 </v>
    <v type="int" >        2       10       11       23       27 </v>
    <v type="int" >        2        6       10       22       23 </v>
    <v type="int" >        2       10       22       23       26 </v>
    <v type="int" >        2       10       23       26       27 </v>
    <v type="int" >        2        7        8       11       24 </v>
    <v type="int" >        2        8       11       12       24 </v>
    <v type="int" >        2       11       12       24       28 </v>
    <v type="int" >        2        7       11       23       24 </v>
    <v type="int" >        2       11       23       24       27 </v>
    <v type="int" >        2       11       24       27       28 </v>
    <v type="int" >        2        5        8       12       21 </v>
    <v type="int" >        2        5        9       12       21 </v>
    <v type="int" >        2        9       12       21       25 </v>
    <v type="int" >        2        8       12       21       24 </v>
    <v type="int" >        2       12       21       24       28 </v>
    <v type="int" >        2       12       21       25       28 </v>
    <v type="int" >        2        9       10       13       26 </v>
    <v type="int" >        2       10       13       14       26 </v>
    <v type="int" >        2       13       14       26       30 </v>
    <v type="int" >        2        9       13       25       26 </v>
    <v type="int" >        2       13       25       26       29 </v>
    <v type="int" >        2       13       26       29       30 </v>
    <v type="int" >        2       10       11       14       27 </v>
    <v type="int" >        2       11       14       15       27 </v>
    <v type="int" >        2       14       15       27       31 </v>
    <v type="int" >        2       10       14       26       27 </v>
    <v type="int" >        2       14       26       27       30 </v>
    <v type="int" >        2       14       27       30       31 </v>
    <v type="int" >        2       11       12       15       28 </v>
    <v type="int" >        2       12       15       16       28 </v>
    <v type="int" >        2       15       16       28       32 </v>
    <v type="int" >        2       11       15       27       28 </v>
    <v type="int" >        2       15       27       28       31 </v>
    <v type="int" >        2       15       28       31       32 </v>
    <v type="int" >        2        9       12       16       25 </v>
    <v type="int" >        2        9       13       16       25 </v>
    <v type="int" >        2       13       16       25       29 </v>
    <v type="int" >        2       12       16       25       28 </v>
    <v type="int" >        2       16       25       28       32 </v>
    <v type="int" >        2       16       25       29       32 </v>
    <v type="int" >        2        1       13       14       30 </v>
    <v type="int" >        2        1        2       14       30 </v>
    <v type="int" >        2        1        2       18       30 </v>
    <v type="int" >        2        1       13       29       30 </v>
    <v type="int" >        2        1       17       29       30 </v>
    <v type="int" >        2        1       17       18       30 </v>
    <v type="int" >        2        2       14       15       31 </v>
    <v type="int" >        2        2        3       15       31 </v>
    <v type="int" >        2        2        3       19       31 </v>
    <v type="int" >        2        2       14       30       31 </v>
    <v type="int" >        2        2       18       30       31 </v>
    <v type="int" >        2        2       18       19       31 </v>
    <v type="int" >        2        3       15       16       32 </v>
    <v type="int" >        2        3        4       16       32 </v>
    <v type="int" >        2        3        4       20       32 </v>
    <v type="int" >        2        3       15       31       32 </v>
    <v type="int" >        2        3       19       31       32 </v>
    <v type="int" >        2        3       19       20       32 </v>
    <v type="int" >        2        4       13       16       29 </v>
    <v type="int" >        2        1        4       13       29 </v>
    <v type="int" >        2        1        4       17       29 </v>
    <v type="int" >        2        4       16       29       32 </v>
    <v type="int" >        2        4       20       29       32 </v>
    <v type="int" >        2        4       17       20       29 </v>
    <v type="int" >        2       17       18       21       31 </v>
    <v type="int" >        2       18       21       22       31 </v>
    <v type="int" >        2       21       22       27       31 </v>
    <v type="int" >        2       17       21       31       32 </v>
    <v type="int" >        2       21       28       31       32 </v>
    <v type="int" >        2       21       27       28       31 </v>
    <v type="int" >        2       18       19       22       30 </v>
    <v type="int" >        2       19       22       23       30 </v>
    <v type="int" >        2       22       23       26       30 </v>
    <v type="int" >        2       18       22       30       31 </v>
    <v type="int" >        2       22       27       30       31 </v>
    <v type="int" >        2       22       26       27       30 </v>
    <v type="int" >        2       19       20       23       29 </v>
    <v type="int" >        2       20       23       24       29 </v>
    <v type="int" >        2       23       24       25       29 </v>
    <v type="int" >        2       19       23       29       30 </v>
    <v type="int" >        2       23       26       29       30 </v>
    <v type="int" >        2       23       25       26       29 </v>
    <v type="int" >        2       17       20       24       32 </v>
    <v type="int" >        2       17       21       24       32 </v>
    <v type="int" >        2       21       24       28       32 </v>
    <v type="int" >        2       20       24       29       32 </v>
    <v type="int" >        2       24       25       29       32 </v>
    <v type="int" >        2       24       25       28       32 </v>
    <v type="int" >        2       21       22       25       27 </v>
    <v type="int" >        2       22       25       26       27 </v>
    <v type="int" >        2       23       25       26       27 </v>
    <v type="int" >        2       21       25       27       28 </v>
    <v type="int" >        2       24       25       27       28 </v>
    <v type="int" >        2       23       24       25       27 </v>
    <v type="int" >        2       22       23       26       26 </v>
    <v type="int" >        2       23       26       26       27 </v>
    <v type="int" >        2       22       26       26       27 </v>
    <v type="int" >        2       21       24       28       28 </v>
    <v type="int" >        2       21       25       28       28 </v>
    <v type="int" >        2       24       25       28       28 </v>
    <v type="int" >        2       17       19       29       30 </v>
    <v type="int" >        2       17       18       19       30 </v>
    <v type="int" >        2       17       18       19       31 </v>
    <v type="int" >        2       17       19       20       29 </v>
    <v type="int" >        2       17       19       20       32 </v>
    <v type="int" >        2       17       19       31       32 </v>
    <v type="int" >        2       18       18       30       31 </v>
    <v type="int" >        2       18       18       19       31 </v>
    <v type="int" >        2       18       18       19       30 </v>
    <v type="int" >        2       20       20       29       32 </v>
    <v type="int" >        2       17       20       20       29 </v>
    <v type="int" >        2       17       20       20       32 </v>
    <v type="int" >        2        2       12       15       16 </v>
    <v type="int" >        2        2       11       12       15 </v>
    <v type="int" >        2        2        6       11       12 </v>
    <v type="int" >        2        1        2       12       16 </v>
    <v type="int" >        2        1        2        5       12 </v>
    <v type="int" >        2        2        5        6       12 </v>
    <v type="int" >        2        3       11       14       15 </v>
    <v type="int" >        2        3       10       11       14 </v>
    <v type="int" >        2        3        7       10       11 </v>
    <v type="int" >        2        2        3       11       15 </v>
    <v type="int" >        2        2        3        6       11 </v>
    <v type="int" >        2        3        6        7       11 </v>
    <v type="int" >        2        4       10       13       14 </v>
    <v type="int" >        2        4        9       10       13 </v>
    <v type="int" >        2        4        8        9       10 </v>
    <v type="int" >        2        3        4       10       14 </v>
    <v type="int" >        2        3        4        7       10 </v>
    <v type="int" >        2        4        7        8       10 </v>
    <v type="int" >        2        1        9       13       16 </v>
    <v type="int" >        2        1        9       12       16 </v>
    <v type="int" >        2        1        5        9       12 </v>
    <v type="int" >        2        1        4        9       13 </v>
    <v type="int" >        2        1        4        8        9 </v>
    <v type="int" >        2        1        5        8        9 </v>
    <v type="int" >        2        6        8       11       12 </v>
    <v type="int" >        2        6        7        8       11 </v>
    <v type="int" >        2        6        7        8       10 </v>
    <v type="int" >        2        5        6        8       12 </v>
    <v type="int" >        2        5        6        8        9 </v>
    <v type="int" >        2        6        8        9       10 </v>
    <v type="int" >        2        7        7       10       11 </v>
    <v type="int" >        2        6        7        7       10 </v>
    <v type="int" >        2        6        7        7       11 </v>
    <v type="int" >        2        5        5        9       12 </v>
    <v type="int" >        2        5        5        8       12 </v>
    <v type="int" >        2        5        5        8        9 </v>
    <v type="int" >        2        3        4       14       16 </v>
    <v type="int" >        2        3       14       15       16 </v>
    <v type="int" >        2        2       14       15       16 </v>
    <v type="int" >        2        4       13       14       16 </v>
    <v type="int" >        2        1       13       14       16 </v>
    <v type="int" >        2        1        2       14       16 </v>
    <v type="int" >        2        2        3       15       15 </v>
    <v type="int" >        2        2       14       15       15 </v>
    <v type="int" >        2        3       14       15       15 </v>
    <v type="int" >        2        1        4       13       13 </v>
    <v type="int" >        2        4       13       13       16 </v>
    <v type="int" >        2        1       13       13       16 </v>
   </varray>
   <i name="volumeweight">      0.00260417 </i>
  </kpoints>
  <scstep>
   <time name="total">   39.08   39.34</time>
   <energy>
    <i name="e_fr_energy">   -208.23734446 </i>
    <i name="e_wo_entrp">   -208.23734446 </i>
    <i name="e_0_energy">   -208.23734446 </i>
   </energy>
  </scstep>
  <scstep>
   <time name="total">   57.56   58.18</time>
   <energy>
    <i name="e_fr_energy">   -224.69737207 </i>
    <i name="e_wo_entrp">   -224.69737207 </i>
    <i name="e_0_energy">   -224.69737207 </i>
   </energy>
  </scstep>
  <scstep>
   <time name="total">   61.90   64.40</time>
   <energy>
    <i name="e_fr_energy">   -225.16771493 </i>
    <i name="e_wo_entrp">   -225.16771493 </i>
    <i name="e_0_energy">   -225.16771493 </i>
   </energy>
  </scstep>
  <scstep>
   <time name="total">   54.84   55.40</time>
   <energy>
    <i name="e_fr_energy">   -225.28406848 </i>
    <i name="e_wo_entrp">   -225.28406848 </i>
    <i name="e_0_energy">   -225.28406848 </i>
   </energy>
  </scstep>
  <scstep>
   <time name="total">   52.11   52.47</time>
   <energy>
    <i name="e_fr_energy">   -225.45335281 </i>
    <i name="e_wo_entrp">   -225.45335281 </i>
    <i name="e_0_energy">   -225.45335281 </i>
   </energy>
  </scstep>
  <scstep>
   <time name="total">   54.53   54.84</time>
   <energy>
    <i name="e_fr_energy">   -225.51862752 </i>
    <i name="e_wo_entrp">   -225.51862752 </i>
    <i name="e_0_energy">   -225.51862752 </i>
   </energy>
  </scstep>
  <scstep>
   <time name="total">   51.94   52.14</time>
   <energy>
    <i name="e_fr_energy">   -225.54225608 </i>
    <i name="e_wo_entrp">   -225.54225608 </i>
    <i name="e_0_energy">   -225.54225608 </i>
   </energy>
  </scstep>
  <kpoints>
   <generation param="Monkhorst-Pack">
    <v type="int" name="divisions">       4        4        4 </v>
    <v name="usershift">      0.00000000       0.00000000       0.00000000 </v>
    <v name="genvec1">      0.25000000      -0.00000000       0.00000000 </v>
    <v name="genvec2">     -0.00000000       0.25000000      -0.00000000 </v>
    <v name="genvec3">      0.00000000       0.00000000       0.25000000 </v>
    <v name="shift">      0.50000000       0.50000000       0.50000000 </v>
   </generation>
   <varray name="kpointlist" >
    <v>       0.12500000       0.12500000       0.12500000 </v>
    <v>       0.37500000       0.12500000       0.12500000 </v>
    <v>      -0.37500000       0.12500000       0.12500000 </v>
    <v>      -0.12500000       0.12500000       0.12500000 </v>
    <v>       0.12500000       0.37500000       0.12500000 </v>
    <v>       0.37500000       0.37500000       0.12500000 </v>
    <v>      -0.37500000       0.37500000       0.12500000 </v>
    <v>      -0.12500000       0.37500000       0.12500000 </v>
    <v>       0.12500000      -0.37500000       0.12500000 </v>
    <v>       0.37500000      -0.37500000       0.12500000 </v>
    <v>      -0.37500000      -0.37500000       0.12500000 </v>
    <v>      -0.12500000      -0.37500000       0.12500000 </v>
    <v>       0.12500000      -0.12500000       0.12500000 </v>
    <v>       0.37500000      -0.12500000       0.12500000 </v>
    <v>      -0.37500000      -0.12500000       0.12500000 </v>
    <v>      -0.12500000      -0.12500000       0.12500000 </v>
    <v>       0.12500000       0.12500000       0.37500000 </v>
    <v>       0.37500000       0.12500000       0.37500000 </v>
    <v>      -0.37500000       0.12500000       0.37500000 </v>
    <v>      -0.12500000       0.12500000       0.37500000 </v>
    <v>       0.12500000       0.37500000       0.37500000 </v>
    <v>       0.37500000       0.37500000       0.37500000 </v>
    <v>      -0.37500000       0.37500000       0.37500000 </v>
    <v>      -0.12500000       0.37500000       0.37500000 </v>
    <v>       0.12500000      -0.37500000       0.37500000 </v>
    <v>       0.37500000      -0.37500000       0.37500000 </v>
    <v>      -0.37500000      -0.37500000       0.37500000 </v>
    <v>      -0.12500000      -0.37500000       0.37500000 </v>
    <v>       0.12500000      -0.12500000       0.37500000 </v>
    <v>       0.37500000      -0.12500000       0.37500000 </v>
    <v>      -0.37500000      -0.12500000       0.37500000 </v>
    <v>      -0.12500000      -0.12500000       0.37500000 </v>
   </varray>
   <varray name="weights" >
    <v>       0.03125000 </v>
    <v>       0.03125000 </v>
    <v>       0.03125000 </v>
    <v>       0.03125000 </v>
    <v>       0.03125000 </v>
    <v>       0.03125000 </v>
    <v>       0.03125000 </v>
    <v>       0.03125000 </v>
    <v>       0.03125000 </v>
    <v>       0.03125000 </v>
    <v>       0.03125000 </v>
    <v>       0.03125000 </v>
    <v>       0.03125000 </v>
    <v>       0.03125000 </v>
    <v>       0.03125000 </v>
    <v>       0.03125000 </v>
    <v>       0.03125000 </v>
    <v>       0.03125000 </v>
    <v>       0.03125000 </v>
    <v>       0.03125000 </v>
    <v>       0.03125000 </v>
    <v>       0.03125000 </v>
    <v>       0.03125000 </v>
    <v>       0.03125000 </v>
    <v>       0.03125000 </v>
    <v>       0.03125000 </v>
    <v>       0.03125000 </v>
    <v>       0.03125000 </v>
    <v>       0.03125000 </v>
    <v>       0.03125000 </v>
    <v>       0.03125000 </v>
    <v>       0.03125000 </v>
   </varray>
   <varray name="tetrahedronlist"  type="int" >
    <v type="int" >        2        1        2        5       18 </v>
    <v type="int" >        2        2        5        6       18 </v>
    <v type="int" >        2        5        6       18       22 </v>
    <v type="int" >        2        1        5       17       18 </v>
    <v type="int" >        2        5       17       18       21 </v>
    <v type="int" >        2        5       18       21       22 </v>
    <v type="int" >        2        2        3        6       19 </v>
    <v type="int" >        2        3        6        7       19 </v>
    <v type="int" >        2        6        7       19       23 </v>
    <v type="int" >        2        2        6       18       19 </v>
    <v type="int" >        2        6       18       19       22 </v>
    <v type="int" >        2        6       19       22       23 </v>
    <v type="int" >        2        3        4        7       20 </v>
    <v type="int" >        2        4        7        8       20 </v>
    <v type="int" >        2        7        8       20       24 </v>
    <v type="int" >        2        3        7       19       20 </v>
    <v type="int" >        2        7       19       20       23 </v>
    <v type="int" >        2        7       20       23       24 </v>
    <v type="int" >        2        1        4        8       17 </v>
    <v type="int" >        2        1        5        8       17 </v>
    <v type="int" >        2        5        8       17       21 </v>
    <v type="int" >        2        4        8       17       20 </v>
    <v type="int" >        2        8       17       20       24 </v>
    <v type="int" >        2        8       17       21       24 </v>
    <v type="int" >        2        5        6        9       22 </v>
    <v type="int" >        2        6        9       10       22 </v>
    <v type="int" >        2        9       10       22       26 </v>
    <v type="int" >        2        5        9       21       22 </v>
    <v type="int" >        2        9       21       22       25 </v>
    <v type="int" >        2        9       22       25       26 </v>
    <v type="int" >        2        6        7       10       23 </v>
    <v type="int" >        2        7       10       11       23 </v>
    <v type="int" >        2       10       11       23       27 </v>
    <v type="int" >        2        6       10       22       23 </v>
    <v type="int" >        2       10       22       23       26 </v>
    <v type="int" >        2       10       23       26       27 </v>
    <v type="int" >        2        7        8       11       24 </v>
    <v type="int" >        2        8       11       12       24 </v>
    <v type="int" >        2       11       12       24       28 </v>
    <v type="int" >        2        7       11       23       24 </v>
    <v type="int" >        2       11       23       24       27 </v>
    <v type="int" >        2       11       24       27       28 </v>
    <v type="int" >        2        5        8       12       21 </v>
    <v type="int" >        2        5        9       12       21 </v>
    <v type="int" >        2        9       12       21       25 </v>
    <v type="int" >        2        8       12       21       24 </v>
    <v type="int" >        2       12       21       24       28 </v>
    <v type="int" >        2       12       21       25       28 </v>
    <v type="int" >        2        9       10       13       26 </v>
    <v type="int" >        2       10       13       14       26 </v>
    <v type="int" >        2       13       14       26       30 </v>
    <v type="int" >        2        9       13       25       26 </v>
    <v type="int" >        2       13       25       26       29 </v>
    <v type="int" >        2       13       26       29       30 </v>
    <v type="int" >        2       10       11       14       27 </v>
    <v type="int" >        2       11       14       15       27 </v>
    <v type="int" >        2       14       15       27       31 </v>
    <v type="int" >        2       10       14       26       27 </v>
    <v type="int" >        2       14       26       27       30 </v>
[...]
       <r>     6.3545    16.1476   148.8259 </r>
       <r>     6.5005    15.8076   151.7377 </r>
       <r>     6.6466    18.2282   154.6005 </r>
       <r>     6.7926    15.0793   157.4692 </r>
       <r>     6.9386    17.5137   161.1482 </r>
       <r>     7.0846    12.6725   164.0422 </r>
       <r>     7.2306     1.4626   164.9616 </r>
       <r>     7.3766     0.0000   165.0000 </r>
       <r>     7.5227     1.2063   165.3116 </r>
       <r>     7.6687     1.1958   165.4870 </r>
       <r>     7.8147     2.1063   165.6641 </r>
       <r>     7.9607     8.5325   166.7236 </r>
       <r>     8.1067    13.6948   168.1733 </r>
       <r>     8.2527     6.2075   169.5536 </r>
       <r>     8.3988     8.3166   170.5243 </r>
       <r>     8.5448     9.0015   171.7558 </r>
       <r>     8.6908     4.7886   172.4585 </r>
       <r>     8.8368     5.4077   173.1469 </r>
       <r>     8.9828     8.0532   173.8945 </r>
       <r>     9.1288     2.5358   175.0547 </r>
       <r>     9.2749     4.4219   176.1073 </r>
       <r>     9.4209    16.7608   177.9205 </r>
       <r>     9.5669    10.3915   180.2895 </r>
       <r>     9.7129    20.2425   182.8975 </r>
       <r>     9.8589    16.6796   185.4628 </r>
       <r>    10.0049    20.5811   188.6436 </r>
       <r>    10.1510     9.0696   191.8390 </r>
       <r>    10.2970     0.0000   192.0000 </r>
       <r>    10.4430     0.0000   192.0000 </r>
       <r>    10.5890     0.0000   192.0000 </r>
       <r>    10.7350     0.0000   192.0000 </r>
       <r>    10.8810     0.0000   192.0000 </r>
       <r>    11.0271     0.0000   192.0000 </r>
       <r>    11.1731     0.0000   192.0000 </r>
       <r>    11.3191     0.0000   192.0000 </r>
       <r>    11.4651     0.0000   192.0000 </r>
       <r>    11.6111     0.0000   192.0000 </r>
       <r>    11.7571     0.0000   192.0000 </r>
       <r>    11.9032     0.0000   192.0000 </r>
       <r>    12.0492     0.0000   192.0000 </r>
       <r>    12.1952     0.0000   192.0000 </r>
      </set>
      <set comment="spin 2">
       <r>   -31.6098     0.0000     0.0000 </r>
       <r>   -31.4638     0.0000     0.0000 </r>
       <r>   -31.3178     0.0000     0.0000 </r>
       <r>   -31.1718     0.0000     0.0000 </r>
       <r>   -31.0258     0.0000     0.0000 </r>
       <r>   -30.8798     0.0000     0.0000 </r>
       <r>   -30.7337     0.0000     0.0000 </r>
       <r>   -30.5877     0.0000     0.0000 </r>
       <r>   -30.4417     0.0000     0.0000 </r>
       <r>   -30.2957     0.0000     0.0000 </r>
       <r>   -30.1497     0.0000     0.0000 </r>
       <r>   -30.0037     0.0000     0.0000 </r>
       <r>   -29.8576     0.0000     0.0000 </r>
       <r>   -29.7116     0.0000     0.0000 </r>
       <r>   -29.5656     0.0000     0.0000 </r>
       <r>   -29.4196     0.0000     9.0000 </r>
       <r>   -29.2736   223.7947    20.9087 </r>
       <r>   -29.1276     0.0000    23.0000 </r>
       <r>   -28.9815     0.0000    24.0000 </r>
       <r>   -28.8355     0.0000    24.0000 </r>
       <r>   -28.6895     0.0000    24.0000 </r>
       <r>   -28.5435     0.0000    24.0000 </r>
       <r>   -28.3975     0.0000    24.0000 </r>
       <r>   -28.2515     0.0000    24.0000 </r>
       <r>   -28.1054     0.0000    24.0000 </r>
       <r>   -27.9594     0.0000    24.0000 </r>
       <r>   -27.8134     0.0000    24.0000 </r>
       <r>   -27.6674     0.0000    24.0000 </r>
       <r>   -27.5214     0.0000    24.0000 </r>
       <r>   -27.3753     0.0000    24.0000 </r>
       <r>   -27.2293     0.0000    24.0000 </r>
       <r>   -27.0833     0.0000    24.0000 </r>
       <r>   -26.9373     0.0000    24.0000 </r>
       <r>   -26.7913     0.0000    24.0000 </r>
       <r>   -26.6453     0.0000    24.0000 </r>
       <r>   -26.4992     0.0000    24.0000 </r>
       <r>   -26.3532     0.0000    24.0000 </r>
       <r>   -26.2072     0.0000    24.0000 </r>
       <r>   -26.0612     0.0000    24.0000 </r>
       <r>   -25.9152     0.0000    24.0000 </r>
       <r>   -25.7692     0.0000    24.0000 </r>
       <r>   -25.6231     0.0000    24.0000 </r>
       <r>   -25.4771     0.0000    24.0000 </r>
       <r>   -25.3311     0.0000    24.0000 </r>
       <r>   -25.1851     0.0000    24.0000 </r>
       <r>   -25.0391     0.0000    24.0000 </r>
       <r>   -24.8931     0.0000    24.0000 </r>
       <r>   -24.7470     0.0000    24.0000 </r>
       <r>   -24.6010     0.0000    24.0000 </r>
       <r>   -24.4550     0.0000    24.0000 </r>
       <r>   -24.3090     0.0000    24.0000 </r>
       <r>   -24.1630     0.0000    24.0000 </r>
       <r>   -24.0170     0.0000    24.0000 </r>
       <r>   -23.8709     0.0000    24.0000 </r>
       <r>   -23.7249     0.0000    24.0000 </r>
       <r>   -23.5789     0.0000    24.0000 </r>
       <r>   -23.4329     0.0000    24.0000 </r>
       <r>   -23.2869     0.0000    24.0000 </r>
       <r>   -23.1409     0.0000    24.0000 </r>
       <r>   -22.9948     0.0000    24.0000 </r>
       <r>   -22.8488     0.0000    24.0000 </r>
       <r>   -22.7028     0.0000    24.0000 </r>
       <r>   -22.5568     0.0000    24.0000 </r>
       <r>   -22.4108     0.0000    24.0000 </r>
       <r>   -22.2648     0.0000    24.0000 </r>
       <r>   -22.1187     0.0000    24.0000 </r>
       <r>   -21.9727     0.0000    24.0000 </r>
       <r>   -21.8267     0.0000    24.0000 </r>
       <r>   -21.6807     0.0000    24.0000 </r>
       <r>   -21.5347     0.0000    24.0000 </r>
       <r>   -21.3887     0.0000    24.0000 </r>
       <r>   -21.2426     0.0000    24.0000 </r>
       <r>   -21.0966     0.0000    24.0000 </r>
       <r>   -20.9506     0.0000    24.0000 </r>
       <r>   -20.8046     0.0000    24.0000 </r>
       <r>   -20.6586     0.0000    24.0000 </r>
       <r>   -20.5126     0.0000    24.0000 </r>
       <r>   -20.3665     0.0000    24.0000 </r>
       <r>   -20.2205     0.0000    24.0000 </r>
       <r>   -20.0745     0.0000    24.0000 </r>
       <r>   -19.9285     0.0000    24.0000 </r>
       <r>   -19.7825     0.0000    24.0000 </r>
       <r>   -19.6365     0.0000    24.0000 </r>
       <r>   -19.4904     0.0000    24.0000 </r>
       <r>   -19.3444     0.0000    24.0000 </r>
       <r>   -19.1984     0.0000    24.0000 </r>
       <r>   -19.0524     0.0000    24.0000 </r>
       <r>   -18.9064     0.0000    24.0000 </r>
       <r>   -18.7604     0.0000    24.0000 </r>
       <r>   -18.6143     0.0000    24.0000 </r>
       <r>   -18.4683     0.0000    24.0000 </r>
       <r>   -18.3223     0.0000    24.0000 </r>
       <r>   -18.1763     0.0000    24.0000 </r>
       <r>   -18.0303     0.0000    24.0000 </r>
       <r>   -17.8843     0.0000    24.0000 </r>
       <r>   -17.7382     0.0000    24.0000 </r>
       <r>   -17.5922     0.0000    24.0000 </r>
       <r>   -17.4462     0.0000    24.0000 </r>
       <r>   -17.3002     0.0000    24.0000 </r>
       <r>   -17.1542     0.0000    24.0000 </r>
       <r>   -17.0082     0.0000    24.0000 </r>
       <r>   -16.8621     0.0000    24.0000 </r>
       <r>   -16.7161     0.0000    24.0000 </r>
       <r>   -16.5701    31.8821    25.5268 </r>
       <r>   -16.4241    71.4066    33.7988 </r>
       <r>   -16.2781    13.1737    45.0438 </r>
       <r>   -16.1321     0.0000    48.0000 </r>
       <r>   -15.9860     0.0000    48.0000 </r>
       <r>   -15.8400     0.0000    48.0000 </r>
       <r>   -15.6940     0.0000    48.0000 </r>
       <r>   -15.5480     0.0000    48.0000 </r>
       <r>   -15.4020     0.0000    48.0000 </r>
       <r>   -15.2560     0.0000    48.0000 </r>
       <r>   -15.1099     0.0000    48.0000 </r>
       <r>   -14.9639     0.0000    48.0000 </r>
       <r>   -14.8179     0.0000    48.0000 </r>
       <r>   -14.6719     0.0000    48.0000 </r>
       <r>   -14.5259     0.0000    48.0000 </r>
       <r>   -14.3799     0.0000    48.0000 </r>
       <r>   -14.2338     0.0000    48.0000 </r>
       <r>   -14.0878     0.0000    48.0000 </r>
       <r>   -13.9418     0.0000    48.0000 </r>
       <r>   -13.7958     3.0296    48.1512 </r>
       <r>   -13.6498     0.0000    49.0000 </r>
       <r>   -13.5038     5.8646    49.4187 </r>
       <r>   -13.3577     1.1451    49.9688 </r>
       <r>   -13.2117    11.4089    51.2199 </r>
       <r>   -13.0657    15.8058    53.9655 </r>
       <r>   -12.9197     0.0000    56.0000 </r>
       <r>   -12.7737    20.3382    60.8693 </r>
       <r>   -12.6277    39.1346    67.0849 </r>
       <r>   -12.4816     4.8000    70.9023 </r>
       <r>   -12.3356     0.0000    71.0000 </r>
       <r>   -12.1896     0.0000    71.0000 </r>
       <r>   -12.0436     0.0000    71.0000 </r>
       <r>   -11.8976     0.0000    71.0000 </r>
       <r>   -11.7516     0.0000    71.0000 </r>
       <r>   -11.6055     0.0000    71.0000 </r>
       <r>   -11.4595     0.0000    71.0000 </r>
       <r>   -11.3135     0.0000    71.0000 </r>
       <r>   -11.1675     0.0000    71.0000 </r>
       <r>   -11.0215     0.0000    71.0000 </r>
       <r>   -10.8755     0.0000    71.0000 </r>
       <r>   -10.7294     0.0000    71.0000 </r>
       <r>   -10.5834     0.0000    71.0000 </r>
       <r>   -10.4374     0.0000    71.0000 </r>
       <r>   -10.2914     0.0000    71.0000 </r>
       <r>   -10.1454     0.0000    71.0000 </r>
       <r>    -9.9994     0.0000    71.0000 </r>
       <r>    -9.8533     0.0000    71.0000 </r>
       <r>    -9.7073     0.0000    71.0000 </r>
       <r>    -9.5613     0.0000    71.0000 </r>
       <r>    -9.4153     0.0000    71.0000 </r>
       <r>    -9.2693     0.0000    71.0000 </r>
       <r>    -9.1233     0.0000    71.0000 </r>
       <r>    -8.9772     0.0000    71.0000 </r>
       <r>    -8.8312     0.0000    71.0000 </r>
       <r>    -8.6852     0.0000    71.0000 </r>
       <r>    -8.5392     0.0000    71.0000 </r>
       <r>    -8.3932     0.0000    71.0000 </r>
       <r>    -8.2472     0.0000    71.0000 </r>
       <r>    -8.1011     0.0000    71.0000 </r>
       <r>    -7.9551     0.0000    71.0000 </r>
       <r>    -7.8091     0.0000    71.0000 </r>
       <r>    -7.6631     0.0000    71.0000 </r>
       <r>    -7.5171     0.0000    71.0000 </r>
       <r>    -7.3711     0.0000    71.0000 </r>
       <r>    -7.2250     0.0000    71.0000 </r>
       <r>    -7.0790     0.0000    71.0000 </r>
       <r>    -6.9330     0.0000    71.0000 </r>
       <r>    -6.7870     0.0000    71.0000 </r>
       <r>    -6.6410     0.0000    71.0000 </r>
       <r>    -6.4949     0.0000    71.0000 </r>
       <r>    -6.3489     0.0000    71.0000 </r>
       <r>    -6.2029     0.0000    71.0000 </r>
       <r>    -6.0569     0.0000    71.0000 </r>
       <r>    -5.9109     0.0000    71.0000 </r>
       <r>    -5.7649     0.0000    71.0000 </r>
       <r>    -5.6188     0.0000    71.0000 </r>
       <r>    -5.4728     0.0000    71.0000 </r>
       <r>    -5.3268     0.0000    71.0000 </r>
       <r>    -5.1808     0.0000    71.0000 </r>
       <r>    -5.0348     0.0000    71.0000 </r>
       <r>    -4.8888     0.0000    71.0000 </r>
       <r>    -4.7427     0.0000    71.0000 </r>
       <r>    -4.5967     0.0000    71.0000 </r>
       <r>    -4.4507     0.0000    71.0000 </r>
       <r>    -4.3047     0.0000    71.0000 </r>
       <r>    -4.1587     0.0000    71.0000 </r>
       <r>    -4.0127     0.0000    71.0000 </r>
       <r>    -3.8666     0.0000    71.0000 </r>
       <r>    -3.7206     0.0000    71.0000 </r>
       <r>    -3.5746     0.0000    71.0000 </r>
       <r>    -3.4286     0.0000    71.0000 </r>
       <r>    -3.2826     0.0000    71.0000 </r>
       <r>    -3.1366     0.0000    71.0000 </r>
       <r>    -2.9905     0.0000    71.0000 </r>
       <r>    -2.8445     0.0000    71.0000 </r>
       <r>    -2.6985     0.0000    71.0000 </r>
       <r>    -2.5525     0.0000    71.0000 </r>
       <r>    -2.4065     0.0000    71.0000 </r>
       <r>    -2.2605     0.0000    71.0000 </r>
       <r>    -2.1144     0.0000    71.0000 </r>
       <r>    -1.9684     0.0000    71.0000 </r>
       <r>    -1.8224     0.0000    71.0000 </r>
       <r>    -1.6764     0.0000    71.0000 </r>
       <r>    -1.5304     0.0000    71.0000 </r>
       <r>    -1.3844     0.0000    71.0000 </r>
       <r>    -1.2383     0.0000    71.0000 </r>
       <r>    -1.0923     0.0000    71.0000 </r>
       <r>    -0.9463     0.0000    71.0000 </r>
       <r>    -0.8003    16.5219    71.9266 </r>
       <r>    -0.6543    25.8200    75.3740 </r>
       <r>    -0.5083    27.0186    78.7803 </r>
       <r>    -0.3622    22.5968    81.8477 </r>
       <r>    -0.2162    20.3667    84.8848 </r>
       <r>    -0.0702    16.9846    87.5306 </r>
       <r>     0.0758    14.2220    89.8965 </r>
       <r>     0.2218    19.5142    92.6083 </r>
       <r>     0.3678    19.1858    95.3711 </r>
       <r>     0.5139    21.3655    98.4422 </r>
       <r>     0.6599    24.2472   102.1733 </r>
       <r>     0.8059    16.0280   105.0725 </r>
       <r>     0.9519    11.2264   107.4693 </r>
       <r>     1.0979    12.4211   109.2450 </r>
       <r>     1.2439    11.6372   110.9975 </r>
       <r>     1.3900    12.3726   112.7483 </r>
       <r>     1.5360    16.5459   114.6902 </r>
       <r>     1.6820    13.0186   117.0008 </r>
       <r>     1.8280    14.6129   118.8569 </r>
       <r>     1.9740    15.4330   121.0876 </r>
       <r>     2.1200    17.5244   123.8102 </r>
       <r>     2.2661    18.6326   126.6901 </r>
       <r>     2.4121    26.7286   130.5732 </r>
       <r>     2.5581    22.9261   134.2358 </r>
       <r>     2.7041    27.4367   137.0379 </r>
       <r>     2.8501     7.9354   139.7229 </r>
       <r>     2.9961     0.0000   140.0000 </r>
       <r>     3.1422     0.0000   140.0000 </r>
       <r>     3.2882     0.0000   140.0000 </r>
       <r>     3.4342     0.0000   140.0000 </r>
       <r>     3.5802     0.0000   140.0000 </r>
       <r>     3.7262     0.0000   140.0000 </r>
       <r>     3.8722     0.0000   140.0000 </r>
       <r>     4.0183     0.0000   140.0000 </r>
       <r>     4.1643     0.0000   140.0000 </r>
       <r>     4.3103     0.0000   140.0000 </r>
       <r>     4.4563     0.0000   140.0000 </r>
       <r>     4.6023     0.0000   140.0000 </r>
       <r>     4.7483     0.0000   140.0000 </r>
       <r>     4.8944     0.0000   140.0000 </r>
       <r>     5.0404     0.0000   140.0000 </r>
       <r>     5.1864     0.0000   140.0000 </r>
       <r>     5.3324     0.0000   140.0000 </r>
       <r>     5.4784     0.0000   140.0000 </r>
       <r>     5.6244     2.9016   140.3103 </r>
       <r>     5.7705     7.3107   141.0897 </r>
       <r>     5.9165    13.3186   142.4475 </r>
       <r>     6.0625    11.7078   144.4618 </r>
       <r>     6.2085    10.5803   146.0915 </r>
       <r>     6.3545     0.3407   147.0001 </r>
       <r>     6.5005    22.5914   149.9134 </r>
       <r>     6.6466    17.4956   152.8712 </r>
       <r>     6.7926    16.1045   155.4149 </r>
       <r>     6.9386    22.1427   159.0265 </r>
       <r>     7.0846    18.0983   161.9713 </r>
       <r>     7.2306     7.6899   164.0827 </r>
       <r>     7.3766     0.0000   165.0000 </r>
       <r>     7.5227     0.0000   165.0000 </r>
       <r>     7.6687     0.0000   165.0000 </r>
       <r>     7.8147     8.7710   165.1485 </r>
       <r>     7.9607     6.8364   166.1479 </r>
       <r>     8.1067     7.8565   167.3865 </r>
       <r>     8.2527     8.2446   168.8996 </r>
       <r>     8.3988     7.5667   170.0335 </r>
       <r>     8.5448    10.9024   171.1070 </r>
       <r>     8.6908     4.3754   172.1005 </r>
       <r>     8.8368     3.8615   172.7743 </r>
       <r>     8.9828     7.1738   173.5776 </r>
       <r>     9.1288     7.8450   174.4585 </r>
       <r>     9.2749     4.0273   175.2196 </r>
       <r>     9.4209    14.9464   177.0190 </r>
       <r>     9.5669    17.2677   179.5603 </r>
       <r>     9.7129    15.8890   182.0957 </r>
       <r>     9.8589    21.1025   185.0286 </r>
       <r>    10.0049    23.3628   188.0980 </r>
       <r>    10.1510    14.7338   191.6158 </r>
       <r>    10.2970     0.0000   192.0000 </r>
       <r>    10.4430     0.0000   192.0000 </r>
       <r>    10.5890     0.0000   192.0000 </r>
       <r>    10.7350     0.0000   192.0000 </r>
       <r>    10.8810     0.0000   192.0000 </r>
       <r>    11.0271     0.0000   192.0000 </r>
       <r>    11.1731     0.0000   192.0000 </r>
       <r>    11.3191     0.0000   192.0000 </r>
       <r>    11.4651     0.0000   192.0000 </r>
       <r>    11.6111     0.0000   192.0000 </r>
       <r>    11.7571     0.0000   192.0000 </r>
       <r>    11.9032     0.0000   192.0000 </r>
       <r>    12.0492     0.0000   192.0000 </r>
       <r>    12.1952     0.0000   192.0000 </r>
      </set>
     </set>
    </array>
   </total>
  </dos>
 </calculation>
 <structure name="finalpos" >
  <crystal>
   <varray name="basis" >
    <v>       7.87856000       0.00008300       0.00615600 </v>
    <v>      -0.00004900       7.87418100       0.00005200 </v>
    <v>       0.00626800      -0.00009600       7.87868900 </v>
   </varray>
   <i name="volume">    488.77156024 </i>
   <varray name="rec_basis" >
    <v>       0.12692683       0.00000079      -0.00010098 </v>
    <v>      -0.00000134       0.12699733       0.00000155 </v>
    <v>      -0.00009917      -0.00000084       0.12692475 </v>
   </varray>
  </crystal>
  <varray name="positions" >
   <v>       0.02006400       0.98512700       0.97980700 </v>
   <v>       0.01670600       0.97996800       0.49694900 </v>
   <v>       0.97811700       0.50268200       0.01624500 </v>
   <v>       0.98515700       0.49818600       0.54046900 </v>
   <v>       0.51491700       0.99672500       0.98773600 </v>
   <v>       0.52514500       0.98724700       0.49814400 </v>
   <v>       0.48050900       0.51045300       0.01836700 </v>
   <v>       0.47478100       0.51095400       0.53756800 </v>
   <v>       0.23314600       0.24228500       0.25923600 </v>
   <v>       0.25486200       0.24900800       0.76574700 </v>
   <v>       0.24603700       0.74086600       0.25525900 </v>
   <v>       0.25079200       0.75192900       0.75864900 </v>
   <v>       0.77067200       0.23544800       0.25739600 </v>
   <v>       0.74577200       0.25213100       0.76654700 </v>
   <v>       0.74886400       0.73611500       0.26190300 </v>
   <v>       0.74835000       0.74870600       0.76038400 </v>
   <v>       0.69107900       0.01265700       0.22883000 </v>
   <v>       0.29942900       0.21714400       0.00083100 </v>
   <v>       0.00100700       0.21149900       0.19391800 </v>
   <v>       0.28357100       0.01048500       0.30003300 </v>
   <v>       0.22104600       0.29863200       0.49059700 </v>
   <v>       0.00064000       0.28835600       0.78859100 </v>
   <v>       0.20743400       0.00244600       0.72761900 </v>
   <v>       0.28795800       0.79065000       0.00378200 </v>
   <v>       0.00018900       0.79056800       0.21803400 </v>
   <v>       0.22752700       0.50261100       0.20217800 </v>
   <v>       0.20987000       0.71649600       0.50268500 </v>
   <v>       0.99933000       0.71787700       0.79259300 </v>
   <v>       0.29088400       0.50237300       0.78089300 </v>
   <v>       0.70301200       0.29245200       0.00229500 </v>
   <v>       0.79078400       0.21471800       0.49366300 </v>
   <v>       0.50074400       0.21722800       0.70660700 </v>
   <v>       0.77323600       0.00261200       0.79737300 </v>
   <v>       0.71239500       0.71675000       0.00471100 </v>
   <v>       0.50126000       0.70815100       0.29425000 </v>
   <v>       0.79546300       0.50009200       0.28010200 </v>
   <v>       0.78498300       0.78888500       0.50311100 </v>
   <v>       0.49913200       0.78182900       0.71719300 </v>
   <v>       0.72469400       0.50194400       0.71059600 </v>
  </varray>
 </structure>
</modeling>
