       N       E                     dE             d eps       ncg     rms          rms(c)
DAV:   1    -0.327399002302E+03   -0.32740E+03   -0.14133E-03 41520   0.306E-01    0.617E-02
DAV:   2    -0.327398996348E+03    0.59536E-05   -0.26786E-04 31656   0.816E-02    0.595E-02
DAV:   3    -0.327398986812E+03    0.95361E-05   -0.49117E-05 24928   0.418E-02
   1 F= -.32739899E+03 E0= -.32739899E+03  d E =-.327399E+03  mag=    -0.0000
       N       E                     dE             d eps       ncg     rms          rms(c)
DAV:   1    -0.299401492841E+03    0.27998E+02   -0.99837E+02 25296   0.158E+02    0.245E+01
DAV:   2    -0.327961342286E+03   -0.28560E+02   -0.30618E+02 31616   0.667E+01    0.158E+01
DAV:   3    -0.328734632574E+03   -0.77329E+00   -0.16999E+01 39056   0.173E+01    0.932E+00
DAV:   4    -0.328644956108E+03    0.89676E-01   -0.19828E+00 42232   0.634E+00    0.953E+00
DAV:   5    -0.328595323140E+03    0.49633E-01   -0.27039E-01 40824   0.217E+00    0.614E+00
DAV:   6    -0.328536702957E+03    0.58620E-01   -0.25324E-01 35152   0.266E+00    0.185E+00
DAV:   7    -0.328539799113E+03   -0.30962E-02   -0.13086E-01 42344   0.159E+00    0.995E-01
DAV:   8    -0.328541062719E+03   -0.12636E-02   -0.19867E-02 45984   0.547E-01    0.818E-01
DAV:   9    -0.328540550263E+03    0.51246E-03   -0.85428E-03 39720   0.376E-01    0.339E-01
DAV:  10    -0.328540628367E+03   -0.78104E-04   -0.19509E-03 40800   0.208E-01    0.234E-01
DAV:  11    -0.328540635316E+03   -0.69489E-05   -0.46392E-04 45232   0.907E-02    0.116E-01
DAV:  12    -0.328540637697E+03   -0.23810E-05   -0.96931E-05 37280   0.410E-02
   2 F= -.32854064E+03 E0= -.32854064E+03  d E =-.114165E+01  mag=    -0.0000
       N       E                     dE             d eps       ncg     rms          rms(c)
DAV:   1    -0.323957651659E+03    0.45830E+01   -0.13089E+02 25136   0.674E+01    0.693E+00
DAV:   2    -0.329598333760E+03   -0.56407E+01   -0.60149E+01 34176   0.262E+01    0.632E+00
DAV:   3    -0.329675163785E+03   -0.76830E-01   -0.20954E+00 40912   0.628E+00    0.460E+00
DAV:   4    -0.329646560008E+03    0.28604E-01   -0.24607E-01 42344   0.214E+00    0.448E+00
DAV:   5    -0.329632966650E+03    0.13593E-01   -0.35511E-02 40224   0.846E-01    0.298E+00
DAV:   6    -0.329614374354E+03    0.18592E-01   -0.60985E-02 32672   0.126E+00    0.902E-01
DAV:   7    -0.329616668920E+03   -0.22946E-02   -0.31405E-02 42872   0.645E-01    0.530E-01
DAV:   8    -0.329616336256E+03    0.33266E-03   -0.37579E-03 44248   0.268E-01    0.367E-01
DAV:   9    -0.329616266450E+03    0.69807E-04   -0.96579E-04 41664   0.128E-01    0.196E-01
DAV:  10    -0.329616259446E+03    0.70035E-05   -0.33058E-04 41408   0.840E-02    0.674E-02
DAV:  11    -0.329616267038E+03   -0.75918E-05   -0.97087E-05 32744   0.343E-02
   3 F= -.32961627E+03 E0= -.32961627E+03  d E =-.221728E+01  mag=     0.0000
       N       E                     dE             d eps       ncg     rms          rms(c)
DAV:   1    -0.329529318714E+03    0.86941E-01   -0.16315E+01 27692   0.173E+01    0.243E+00
DAV:   2    -0.329728869786E+03   -0.19955E+00   -0.22453E+00 36872   0.620E+00    0.148E+00
DAV:   3    -0.329727963625E+03    0.90616E-03   -0.10333E-01 41860   0.140E+00    0.977E-01
DAV:   4    -0.329721537347E+03    0.64263E-02   -0.18181E-02 41912   0.618E-01    0.672E-01
DAV:   5    -0.329720528013E+03    0.10093E-02   -0.61187E-03 38936   0.356E-01    0.224E-01
DAV:   6    -0.329720473876E+03    0.54137E-04   -0.20889E-03 44752   0.181E-01    0.139E-01
DAV:   7    -0.329720480833E+03   -0.69574E-05   -0.46459E-04 39648   0.105E-01    0.112E-01
DAV:   8    -0.329720475005E+03    0.58281E-05   -0.11930E-04 37496   0.442E-02    0.685E-02
DAV:   9    -0.329720465846E+03    0.91594E-05   -0.76175E-05 29136   0.408E-02
   4 F= -.32972047E+03 E0= -.32972047E+03  d E =-.104199E+00  mag=    -0.0000
       N       E                     dE             d eps       ncg     rms          rms(c)
DAV:   1    -0.329491724702E+03    0.22875E+00   -0.22314E+01 27336   0.203E+01    0.283E+00
DAV:   2    -0.329777178247E+03   -0.28545E+00   -0.32023E+00 37032   0.742E+00    0.174E+00
DAV:   3    -0.329774451415E+03    0.27268E-02   -0.13084E-01 42072   0.157E+00    0.116E+00
DAV:   4    -0.329765272610E+03    0.91788E-02   -0.24540E-02 41664   0.714E-01    0.797E-01
DAV:   5    -0.329763871970E+03    0.14006E-02   -0.88723E-03 38904   0.408E-01    0.267E-01
DAV:   6    -0.329763793427E+03    0.78543E-04   -0.29688E-03 44848   0.213E-01    0.168E-01
DAV:   7    -0.329763805146E+03   -0.11719E-04   -0.66243E-04 38712   0.125E-01    0.134E-01
DAV:   8    -0.329763798653E+03    0.64935E-05   -0.18490E-04 41224   0.528E-02    0.836E-02
DAV:   9    -0.329763783914E+03    0.14739E-04   -0.11350E-04 31184   0.486E-02    0.243E-02
DAV:  10    -0.329763786549E+03   -0.26358E-05   -0.30551E-05 21240   0.308E-02
   5 F= -.32976379E+03 E0= -.32976379E+03  d E =-.147520E+00  mag=     0.0000
       N       E                     dE             d eps       ncg     rms          rms(c)
DAV:   1    -0.329672806557E+03    0.90977E-01   -0.16581E+01 25328   0.159E+01    0.391E+00
DAV:   2    -0.329832644315E+03   -0.15984E+00   -0.20587E+00 38232   0.627E+00    0.138E+00
DAV:   3    -0.329831864785E+03    0.77953E-03   -0.86359E-02 42120   0.126E+00    0.957E-01
DAV:   4    -0.329827584232E+03    0.42806E-02   -0.15156E-02 44192   0.533E-01    0.676E-01
DAV:   5    -0.329827061702E+03    0.52253E-03   -0.50986E-03 40032   0.293E-01    0.316E-01
DAV:   6    -0.329827098776E+03   -0.37075E-04   -0.18388E-03 40864   0.184E-01    0.187E-01
DAV:   7    -0.329827140316E+03   -0.41540E-04   -0.57058E-04 42600   0.103E-01    0.132E-01
DAV:   8    -0.329827144374E+03   -0.40580E-05   -0.13200E-04 39600   0.511E-02    0.461E-02
DAV:   9    -0.329827147262E+03   -0.28875E-05   -0.36385E-05 23416   0.299E-02
   6 F= -.32982715E+03 E0= -.32982715E+03  d E =-.633607E-01  mag=     0.0000
       N       E                     dE             d eps       ncg     rms          rms(c)
DAV:   1    -0.329771604630E+03    0.55540E-01   -0.72589E+00 25468   0.105E+01    0.259E+00
DAV:   2    -0.329841469569E+03   -0.69865E-01   -0.89839E-01 38360   0.415E+00    0.911E-01
DAV:   3    -0.329841049510E+03    0.42006E-03   -0.37265E-02 41952   0.826E-01    0.636E-01
DAV:   4    -0.329839207089E+03    0.18424E-02   -0.67920E-03 44048   0.355E-01    0.443E-01
DAV:   5    -0.329839008049E+03    0.19904E-03   -0.21749E-03 39584   0.190E-01    0.206E-01
DAV:   6    -0.329839025376E+03   -0.17327E-04   -0.76896E-04 41488   0.118E-01    0.122E-01
DAV:   7    -0.329839044756E+03   -0.19380E-04   -0.23888E-04 41624   0.652E-02    0.861E-02
DAV:   8    -0.329839046760E+03   -0.20038E-05   -0.42507E-05 25624   0.337E-02
   7 F= -.32983905E+03 E0= -.32983905E+03  d E =-.752602E-01  mag=     0.0000
       N       E                     dE             d eps       ncg     rms          rms(c)
DAV:   1    -0.329775385871E+03    0.63659E-01   -0.11507E+01 25600   0.127E+01    0.198E+00
DAV:   2    -0.329883779470E+03   -0.10839E+00   -0.11840E+00 37936   0.470E+00    0.102E+00
DAV:   3    -0.329883015708E+03    0.76376E-03   -0.41864E-02 41648   0.861E-01    0.701E-01
DAV:   4    -0.329880472494E+03    0.25432E-02   -0.73484E-03 42960   0.384E-01    0.474E-01
DAV:   5    -0.329879873810E+03    0.59868E-03   -0.27032E-03 39296   0.226E-01    0.178E-01
DAV:   6    -0.329879801880E+03    0.71930E-04   -0.11380E-03 42424   0.136E-01    0.958E-02
DAV:   7    -0.329879816853E+03   -0.14973E-04   -0.34989E-04 39880   0.817E-02    0.849E-02
DAV:   8    -0.329879817352E+03   -0.49912E-06   -0.59617E-05 28464   0.325E-02
   8 F= -.32987982E+03 E0= -.32987982E+03  d E =-.407706E-01  mag=     0.0000
       N       E                     dE             d eps       ncg     rms          rms(c)
DAV:   1    -0.329746886738E+03    0.13293E+00   -0.16993E+01 25568   0.154E+01    0.241E+00
DAV:   2    -0.329906941129E+03   -0.16005E+00   -0.17474E+00 38008   0.571E+00    0.124E+00
DAV:   3    -0.329905760362E+03    0.11808E-02   -0.61718E-02 41464   0.104E+00    0.855E-01
DAV:   4    -0.329902097255E+03    0.36631E-02   -0.10822E-02 43200   0.463E-01    0.585E-01
DAV:   5    -0.329901149438E+03    0.94782E-03   -0.40015E-03 39432   0.267E-01    0.217E-01
DAV:   6    -0.329901047443E+03    0.10200E-03   -0.17201E-03 42904   0.164E-01    0.120E-01
DAV:   7    -0.329901069536E+03   -0.22093E-04   -0.51051E-04 39440   0.987E-02    0.105E-01
DAV:   8    -0.329901072973E+03   -0.34367E-05   -0.10559E-04 35888   0.391E-02    0.720E-02
DAV:   9    -0.329901063976E+03    0.89971E-05   -0.56889E-05 26464   0.352E-02
   9 F= -.32990106E+03 E0= -.32990106E+03  d E =-.620172E-01  mag=    -0.0000
       N       E                     dE             d eps       ncg     rms          rms(c)
DAV:   1    -0.329859209313E+03    0.41864E-01   -0.89679E+00 25248   0.105E+01    0.159E+00
DAV:   2    -0.329930894462E+03   -0.71685E-01   -0.77769E-01 39856   0.383E+00    0.878E-01
DAV:   3    -0.329931220744E+03   -0.32628E-03   -0.28751E-02 41280   0.705E-01    0.599E-01
DAV:   4    -0.329930331099E+03    0.88965E-03   -0.48265E-03 45384   0.321E-01    0.460E-01
DAV:   5    -0.329929812490E+03    0.51861E-03   -0.14583E-03 35960   0.174E-01    0.214E-01
DAV:   6    -0.329929717303E+03    0.95187E-04   -0.78603E-04 42448   0.115E-01    0.875E-02
DAV:   7    -0.329929734000E+03   -0.16697E-04   -0.24546E-04 38928   0.695E-02    0.718E-02
DAV:   8    -0.329929733535E+03    0.46521E-06   -0.25994E-05 20992   0.282E-02
  10 F= -.32992973E+03 E0= -.32992973E+03  d E =-.286696E-01  mag=    -0.0000
       N       E                     dE             d eps       ncg     rms          rms(c)
DAV:   1    -0.329822647436E+03    0.10709E+00   -0.15158E+01 25216   0.137E+01    0.207E+00
DAV:   2    -0.329945234811E+03   -0.12259E+00   -0.13288E+00 39672   0.499E+00    0.114E+00
DAV:   3    -0.329946048741E+03   -0.81393E-03   -0.51413E-02 41328   0.942E-01    0.772E-01
DAV:   4    -0.329944632701E+03    0.14160E-02   -0.87611E-03 45616   0.437E-01    0.597E-01
DAV:   5    -0.329943762446E+03    0.87025E-03   -0.25133E-03 36280   0.221E-01    0.280E-01
DAV:   6    -0.329943589945E+03    0.17250E-03   -0.13246E-03 42168   0.152E-01    0.114E-01
DAV:   7    -0.329943619644E+03   -0.29699E-04   -0.43038E-04 39376   0.917E-02    0.931E-02
DAV:   8    -0.329943623321E+03   -0.36777E-05   -0.84409E-05 35152   0.374E-02
  11 F= -.32994362E+03 E0= -.32994362E+03  d E =-.425593E-01  mag=     0.0000
       N       E                     dE             d eps       ncg     rms          rms(c)
DAV:   1    -0.329942490917E+03    0.11287E-02   -0.27638E+00 24624   0.515E+00    0.843E-01
DAV:   2    -0.329958865712E+03   -0.16375E-01   -0.17167E-01 40112   0.181E+00    0.391E-01
DAV:   3    -0.329958992788E+03   -0.12708E-03   -0.58011E-03 41376   0.312E-01    0.272E-01
DAV:   4    -0.329958811009E+03    0.18178E-03   -0.10534E-03 46344   0.133E-01    0.178E-01
DAV:   5    -0.329958744281E+03    0.66729E-04   -0.34368E-04 37296   0.752E-02    0.665E-02
DAV:   6    -0.329958749044E+03   -0.47637E-05   -0.12514E-04 39728   0.427E-02    0.351E-02
DAV:   7    -0.329958750090E+03   -0.10455E-05   -0.18520E-05 18880   0.233E-02
  12 F= -.32995875E+03 E0= -.32995875E+03  d E =-.151268E-01  mag=     0.0000
       N       E                     dE             d eps       ncg     rms          rms(c)
DAV:   1    -0.329843705841E+03    0.11504E+00   -0.24777E+01 24576   0.154E+01    0.250E+00
DAV:   2    -0.329994058168E+03   -0.15035E+00   -0.15818E+00 40176   0.544E+00    0.117E+00
DAV:   3    -0.329996620766E+03   -0.25626E-02   -0.65053E-02 41344   0.950E-01    0.816E-01
DAV:   4    -0.329995099427E+03    0.15213E-02   -0.12078E-02 46272   0.433E-01    0.526E-01
DAV:   5    -0.329994617328E+03    0.48210E-03   -0.33904E-03 38160   0.227E-01    0.195E-01
DAV:   6    -0.329994656737E+03   -0.39409E-04   -0.11591E-03 44416   0.136E-01    0.983E-02
DAV:   7    -0.329994675224E+03   -0.18487E-04   -0.31022E-04 43192   0.670E-02    0.910E-02
DAV:   8    -0.329994671710E+03    0.35135E-05   -0.47590E-05 26952   0.308E-02
  13 F= -.32999467E+03 E0= -.32999467E+03  d E =-.510484E-01  mag=     0.0000
       N       E                     dE             d eps       ncg     rms          rms(c)
DAV:   1    -0.329354019728E+03    0.64066E+00   -0.98086E+01 24576   0.308E+01    0.500E+00
DAV:   2    -0.329996848497E+03   -0.64283E+00   -0.68135E+00 39384   0.109E+01    0.232E+00
DAV:   3    -0.330023058451E+03   -0.26210E-01   -0.41916E-01 41176   0.212E+00    0.165E+00
DAV:   4    -0.330020548560E+03    0.25099E-02   -0.82233E-02 46584   0.946E-01    0.107E+00
DAV:   5    -0.330018480282E+03    0.20683E-02   -0.18781E-02 38608   0.464E-01    0.417E-01
DAV:   6    -0.330018513463E+03   -0.33181E-04   -0.60522E-03 43432   0.301E-01    0.196E-01
DAV:   7    -0.330018634944E+03   -0.12148E-03   -0.18208E-03 45248   0.150E-01    0.186E-01
DAV:   8    -0.330018640793E+03   -0.58488E-05   -0.35414E-04 44416   0.675E-02    0.908E-02
DAV:   9    -0.330018631988E+03    0.88046E-05   -0.14321E-04 36680   0.491E-02    0.258E-02
DAV:  10    -0.330018633620E+03   -0.16319E-05   -0.31309E-05 21752   0.283E-02
  14 F= -.33001863E+03 E0= -.33001863E+03  d E =-.750103E-01  mag=    -0.0000
       N       E                     dE             d eps       ncg     rms          rms(c)
DAV:   1    -0.329955689692E+03    0.62942E-01   -0.18220E+01 25092   0.127E+01    0.218E+00
DAV:   2    -0.330049973976E+03   -0.94284E-01   -0.10009E+00 38792   0.426E+00    0.951E-01
DAV:   3    -0.330052028361E+03   -0.20544E-02   -0.51282E-02 42080   0.897E-01    0.669E-01
DAV:   4    -0.330051639449E+03    0.38891E-03   -0.97665E-03 45304   0.403E-01    0.479E-01
DAV:   5    -0.330051021033E+03    0.61842E-03   -0.25867E-03 35656   0.221E-01    0.209E-01
DAV:   6    -0.330051013849E+03    0.71849E-05   -0.11094E-03 45256   0.125E-01    0.101E-01
DAV:   7    -0.330051034876E+03   -0.21027E-04   -0.26159E-04 43688   0.597E-02    0.844E-02
DAV:   8    -0.330051032401E+03    0.24744E-05   -0.39965E-05 24584   0.313E-02
  15 F= -.33005103E+03 E0= -.33005103E+03  d E =-.323988E-01  mag=    -0.0000
       N       E                     dE             d eps       ncg     rms          rms(c)
DAV:   1    -0.329619315187E+03    0.43172E+00   -0.75844E+01 25088   0.262E+01    0.449E+00
DAV:   2    -0.330054431306E+03   -0.43512E+00   -0.46489E+00 38784   0.883E+00    0.194E+00
DAV:   3    -0.330076209996E+03   -0.21779E-01   -0.34882E-01 41792   0.198E+00    0.139E+00
DAV:   4    -0.330077738635E+03   -0.15286E-02   -0.73067E-02 45560   0.897E-01    0.100E+00
DAV:   5    -0.330075087461E+03    0.26512E-02   -0.16992E-02 35504   0.455E-01    0.478E-01
DAV:   6    -0.330074885042E+03    0.20242E-03   -0.59125E-03 44368   0.277E-01    0.218E-01
DAV:   7    -0.330075015422E+03   -0.13038E-03   -0.15932E-03 45976   0.132E-01    0.174E-01
DAV:   8    -0.330075018430E+03   -0.30081E-05   -0.32941E-04 42928   0.706E-02    0.679E-02
DAV:   9    -0.330075017391E+03    0.10392E-05   -0.14603E-04 39352   0.490E-02    0.279E-02
DAV:  10    -0.330075017818E+03   -0.42722E-06   -0.21863E-05 19520   0.267E-02
  16 F= -.33007502E+03 E0= -.33007502E+03  d E =-.563842E-01  mag=     0.0000
       N       E                     dE             d eps       ncg     rms          rms(c)
DAV:   1    -0.329875490702E+03    0.19953E+00   -0.34126E+01 25120   0.190E+01    0.262E+00
DAV:   2    -0.330118905328E+03   -0.24341E+00   -0.25783E+00 38840   0.702E+00    0.133E+00
DAV:   3    -0.330126395440E+03   -0.74901E-02   -0.13231E-01 42320   0.139E+00    0.860E-01
DAV:   4    -0.330125797445E+03    0.59799E-03   -0.23745E-02 45624   0.616E-01    0.690E-01
DAV:   5    -0.330124922133E+03    0.87531E-03   -0.65767E-03 39920   0.333E-01    0.274E-01
DAV:   6    -0.330124976350E+03   -0.54217E-04   -0.22997E-03 44192   0.191E-01    0.131E-01
DAV:   7    -0.330125010963E+03   -0.34613E-04   -0.66207E-04 42120   0.111E-01    0.111E-01
DAV:   8    -0.330125018315E+03   -0.73519E-05   -0.15521E-04 41632   0.450E-02    0.759E-02
DAV:   9    -0.330125010648E+03    0.76667E-05   -0.77279E-05 29952   0.411E-02
  17 F= -.33012501E+03 E0= -.33012501E+03  d E =-.499928E-01  mag=    -0.0000
       N       E                     dE             d eps       ncg     rms          rms(c)
DAV:   1    -0.329902492629E+03    0.22253E+00   -0.32190E+01 25120   0.185E+01    0.254E+00
DAV:   2    -0.330133846094E+03   -0.23135E+00   -0.24454E+00 38856   0.689E+00    0.131E+00
DAV:   3    -0.330140780602E+03   -0.69345E-02   -0.12389E-01 42504   0.135E+00    0.840E-01
DAV:   4    -0.330140205556E+03    0.57505E-03   -0.22215E-02 45592   0.605E-01    0.675E-01
DAV:   5    -0.330139358416E+03    0.84714E-03   -0.62330E-03 39728   0.328E-01    0.265E-01
DAV:   6    -0.330139425197E+03   -0.66781E-04   -0.22228E-03 44392   0.188E-01    0.128E-01
DAV:   7    -0.330139456856E+03   -0.31659E-04   -0.62256E-04 42256   0.107E-01    0.109E-01
DAV:   8    -0.330139463179E+03   -0.63231E-05   -0.14579E-04 41176   0.438E-02    0.742E-02
DAV:   9    -0.330139455711E+03    0.74679E-05   -0.72237E-05 29384   0.399E-02
  18 F= -.33013946E+03 E0= -.33013946E+03  d E =-.644379E-01  mag=     0.0000
       N       E                     dE             d eps       ncg     rms          rms(c)
DAV:   1    -0.329855804095E+03    0.28366E+00   -0.47398E+01 26272   0.227E+01    0.449E+00
DAV:   2    -0.330183311568E+03   -0.32751E+00   -0.38563E+00 39024   0.873E+00    0.183E+00
DAV:   3    -0.330191468389E+03   -0.81568E-02   -0.23322E-01 41864   0.185E+00    0.121E+00
DAV:   4    -0.330189549609E+03    0.19188E-02   -0.46946E-02 46144   0.855E-01    0.816E-01
DAV:   5    -0.330187580055E+03    0.19696E-02   -0.13088E-02 36976   0.473E-01    0.383E-01
DAV:   6    -0.330187811504E+03   -0.23145E-03   -0.40754E-03 47072   0.255E-01    0.225E-01
DAV:   7    -0.330187850690E+03   -0.39186E-04   -0.74991E-04 45032   0.100E-01    0.170E-01
DAV:   8    -0.330187837548E+03    0.13142E-04   -0.22194E-04 39312   0.676E-02    0.482E-02
DAV:   9    -0.330187834921E+03    0.26268E-05   -0.96101E-05 35720   0.394E-02
  19 F= -.33018783E+03 E0= -.33018783E+03  d E =-.483792E-01  mag=     0.0000
       N       E                     dE             d eps       ncg     rms          rms(c)
DAV:   1    -0.330155558557E+03    0.32279E-01   -0.55981E+00 26084   0.777E+00    0.152E+00
DAV:   2    -0.330191706505E+03   -0.36148E-01   -0.42722E-01 39328   0.300E+00    0.626E-01
DAV:   3    -0.330191776941E+03   -0.70436E-04   -0.18158E-02 42320   0.585E-01    0.406E-01
DAV:   4    -0.330191342254E+03    0.43469E-03   -0.34885E-03 45504   0.262E-01    0.273E-01
DAV:   5    -0.330191144261E+03    0.19799E-03   -0.12068E-03 36784   0.154E-01    0.128E-01
DAV:   6    -0.330191166363E+03   -0.22101E-04   -0.38501E-04 46392   0.826E-02    0.791E-02
DAV:   7    -0.330191168910E+03   -0.25478E-05   -0.58476E-05 29456   0.339E-02
  20 F= -.33019117E+03 E0= -.33019117E+03  d E =-.517132E-01  mag=     0.0000
       N       E                     dE             d eps       ncg     rms          rms(c)
DAV:   1    -0.329903027412E+03    0.28814E+00   -0.42500E+01 25120   0.216E+01    0.286E+00
DAV:   2    -0.330228612061E+03   -0.32558E+00   -0.34394E+00 38504   0.765E+00    0.160E+00
DAV:   3    -0.330239800459E+03   -0.11188E-01   -0.18787E-01 42864   0.159E+00    0.102E+00
DAV:   4    -0.330240006167E+03   -0.20571E-03   -0.35864E-02 45344   0.710E-01    0.780E-01
DAV:   5    -0.330238785280E+03    0.12209E-02   -0.85713E-03 38240   0.372E-01    0.335E-01
DAV:   6    -0.330238814180E+03   -0.28899E-04   -0.31602E-03 43768   0.229E-01    0.147E-01
DAV:   7    -0.330238861334E+03   -0.47155E-04   -0.10004E-03 41272   0.138E-01    0.134E-01
DAV:   8    -0.330238877205E+03   -0.15871E-04   -0.22856E-04 44264   0.549E-02    0.943E-02
DAV:   9    -0.330238868967E+03    0.82380E-05   -0.10103E-04 31624   0.470E-02    0.365E-02
DAV:  10    -0.330238870315E+03   -0.13478E-05   -0.21907E-05 18832   0.290E-02
  21 F= -.33023887E+03 E0= -.33023887E+03  d E =-.477014E-01  mag=    -0.0000
       N       E                     dE             d eps       ncg     rms          rms(c)
DAV:   1    -0.330115426811E+03    0.12344E+00   -0.17813E+01 25120   0.139E+01    0.183E+00
DAV:   2    -0.330244868995E+03   -0.12944E+00   -0.13644E+00 38144   0.489E+00    0.106E+00
DAV:   3    -0.330248061510E+03   -0.31925E-02   -0.63202E-02 43112   0.101E+00    0.668E-01
DAV:   4    -0.330247832259E+03    0.22925E-03   -0.11584E-02 44776   0.433E-01    0.515E-01
DAV:   5    -0.330247326550E+03    0.50571E-03   -0.30230E-03 38400   0.235E-01    0.214E-01
DAV:   6    -0.330247354905E+03   -0.28355E-04   -0.12056E-03 44056   0.141E-01    0.957E-02
DAV:   7    -0.330247367333E+03   -0.12428E-04   -0.35908E-04 39816   0.874E-02    0.878E-02
DAV:   8    -0.330247371261E+03   -0.39274E-05   -0.70251E-05 31048   0.342E-02
  22 F= -.33024737E+03 E0= -.33024737E+03  d E =-.562024E-01  mag=     0.0000
       N       E                     dE             d eps       ncg     rms          rms(c)
DAV:   1    -0.330040878058E+03    0.20649E+00   -0.39961E+01 25088   0.195E+01    0.273E+00
DAV:   2    -0.330284284972E+03   -0.24341E+00   -0.26205E+00 36328   0.672E+00    0.129E+00
DAV:   3    -0.330295177922E+03   -0.10893E-01   -0.16792E-01 43560   0.135E+00    0.918E-01
DAV:   4    -0.330295291501E+03   -0.11358E-03   -0.31761E-02 46056   0.602E-01    0.606E-01
DAV:   5    -0.330294496147E+03    0.79535E-03   -0.79272E-03 37664   0.317E-01    0.290E-01
DAV:   6    -0.330294621440E+03   -0.12529E-03   -0.24641E-03 47448   0.176E-01    0.156E-01
DAV:   7    -0.330294654558E+03   -0.33118E-04   -0.47703E-04 42456   0.802E-02    0.120E-01
DAV:   8    -0.330294653367E+03    0.11905E-05   -0.14418E-04 36512   0.502E-02    0.367E-02
DAV:   9    -0.330294649180E+03    0.41873E-05   -0.64784E-05 28096   0.355E-02
  23 F= -.33029465E+03 E0= -.33029465E+03  d E =-.472779E-01  mag=    -0.0000
       N       E                     dE             d eps       ncg     rms          rms(c)
DAV:   1    -0.329667374667E+03    0.62728E+00   -0.90802E+01 25088   0.295E+01    0.423E+00
DAV:   2    -0.330277692638E+03   -0.61032E+00   -0.66019E+00 36112   0.103E+01    0.200E+00
DAV:   3    -0.330320660968E+03   -0.42968E-01   -0.56930E-01 42528   0.225E+00    0.141E+00
DAV:   4    -0.330325417314E+03   -0.47563E-02   -0.11438E-01 46896   0.101E+00    0.986E-01
DAV:   5    -0.330323057392E+03    0.23599E-02   -0.24381E-02 36720   0.514E-01    0.494E-01
DAV:   6    -0.330323335499E+03   -0.27811E-03   -0.71915E-03 47432   0.288E-01    0.248E-01
DAV:   7    -0.330323426417E+03   -0.90918E-04   -0.14197E-03 45848   0.120E-01    0.177E-01
DAV:   8    -0.330323432768E+03   -0.63510E-05   -0.38515E-04 42472   0.737E-02    0.466E-02
DAV:   9    -0.330323434948E+03   -0.21805E-05   -0.15043E-04 39704   0.424E-02    0.214E-02
DAV:  10    -0.330323436227E+03   -0.12790E-05   -0.20631E-05 19128   0.250E-02
  24 F= -.33032344E+03 E0= -.33032344E+03  d E =-.760650E-01  mag=    -0.0000
       N       E                     dE             d eps       ncg     rms          rms(c)
DAV:   1    -0.329997893765E+03    0.32554E+00   -0.53040E+01 24608   0.226E+01    0.330E+00
DAV:   2    -0.330352462626E+03   -0.35457E+00   -0.38271E+00 36856   0.763E+00    0.148E+00
DAV:   3    -0.330374106794E+03   -0.21644E-01   -0.28298E-01 43040   0.174E+00    0.105E+00
DAV:   4    -0.330375039615E+03   -0.93282E-03   -0.48140E-02 46024   0.740E-01    0.756E-01
DAV:   5    -0.330374354672E+03    0.68494E-03   -0.10328E-02 38800   0.348E-01    0.357E-01
DAV:   6    -0.330374492007E+03   -0.13733E-03   -0.31071E-03 47696   0.200E-01    0.182E-01
DAV:   7    -0.330374527808E+03   -0.35801E-04   -0.69689E-04 40928   0.103E-01    0.146E-01
DAV:   8    -0.330374529293E+03   -0.14846E-05   -0.21812E-04 42248   0.598E-02    0.510E-02
DAV:   9    -0.330374525369E+03    0.39233E-05   -0.85780E-05 32280   0.399E-02
  25 F= -.33037453E+03 E0= -.33037453E+03  d E =-.510891E-01  mag=    -0.0000
       N       E                     dE             d eps       ncg     rms          rms(c)
DAV:   1    -0.330093029469E+03    0.28150E+00   -0.43059E+01 24576   0.203E+01    0.296E+00
DAV:   2    -0.330374511034E+03   -0.28148E+00   -0.30375E+00 36968   0.686E+00    0.134E+00
DAV:   3    -0.330388999423E+03   -0.14488E-01   -0.19924E-01 43328   0.149E+00    0.954E-01
DAV:   4    -0.330389502520E+03   -0.50310E-03   -0.36175E-02 45520   0.650E-01    0.686E-01
DAV:   5    -0.330389041117E+03    0.46140E-03   -0.89549E-03 38680   0.314E-01    0.329E-01
DAV:   6    -0.330389173884E+03   -0.13277E-03   -0.26801E-03 47800   0.185E-01    0.168E-01
DAV:   7    -0.330389208629E+03   -0.34746E-04   -0.62316E-04 40952   0.957E-02    0.136E-01
DAV:   8    -0.330389206743E+03    0.18867E-05   -0.18553E-04 39768   0.555E-02    0.496E-02
DAV:   9    -0.330389202383E+03    0.43598E-05   -0.84219E-05 32336   0.394E-02
  26 F= -.33038920E+03 E0= -.33038920E+03  d E =-.657662E-01  mag=    -0.0000
       N       E                     dE             d eps       ncg     rms          rms(c)
DAV:   1    -0.329996196511E+03    0.39301E+00   -0.67852E+01 24608   0.239E+01    0.303E+00
DAV:   2    -0.330402552652E+03   -0.40636E+00   -0.42952E+00 38416   0.810E+00    0.163E+00
DAV:   3    -0.330433732408E+03   -0.31180E-01   -0.37060E-01 43136   0.183E+00    0.109E+00
DAV:   4    -0.330437228125E+03   -0.34957E-02   -0.68500E-02 45144   0.819E-01    0.843E-01
DAV:   5    -0.330436206202E+03    0.10219E-02   -0.14454E-02 38792   0.408E-01    0.397E-01
DAV:   6    -0.330436191403E+03    0.14799E-04   -0.42122E-03 41904   0.251E-01    0.162E-01
DAV:   7    -0.330436331444E+03   -0.14004E-03   -0.17196E-03 44440   0.147E-01    0.142E-01
DAV:   8    -0.330436351500E+03   -0.20056E-04   -0.28729E-04 41608   0.612E-02    0.951E-02
DAV:   9    -0.330436340381E+03    0.11120E-04   -0.13538E-04 35240   0.514E-02    0.389E-02
DAV:  10    -0.330436343268E+03   -0.28875E-05   -0.34924E-05 22712   0.292E-02
  27 F= -.33043634E+03 E0= -.33043634E+03  d E =-.471409E-01  mag=    -0.0000
       N       E                     dE             d eps       ncg     rms          rms(c)
DAV:   1    -0.330318334103E+03    0.11801E+00   -0.22493E+01 24640   0.138E+01    0.168E+00
DAV:   2    -0.330437541609E+03   -0.11921E+00   -0.12497E+00 38352   0.460E+00    0.920E-01
DAV:   3    -0.330443299928E+03   -0.57583E-02   -0.76895E-02 44144   0.983E-01    0.625E-01
DAV:   4    -0.330443431596E+03   -0.13167E-03   -0.12218E-02 43800   0.408E-01    0.472E-01
DAV:   5    -0.330443097064E+03    0.33453E-03   -0.30034E-03 39280   0.216E-01    0.211E-01
DAV:   6    -0.330443119445E+03   -0.22381E-04   -0.10856E-03 41928   0.133E-01    0.906E-02
DAV:   7    -0.330443150250E+03   -0.30804E-04   -0.42634E-04 43456   0.820E-02    0.806E-02
DAV:   8    -0.330443153897E+03   -0.36475E-05   -0.65409E-05 29992   0.326E-02
  28 F= -.33044315E+03 E0= -.33044315E+03  d E =-.539515E-01  mag=     0.0000
       N       E                     dE             d eps       ncg     rms          rms(c)
DAV:   1    -0.330216160496E+03    0.22699E+00   -0.51755E+01 24576   0.191E+01    0.287E+00
DAV:   2    -0.330468231717E+03   -0.25207E+00   -0.26805E+00 40664   0.677E+00    0.137E+00
DAV:   3    -0.330486232812E+03   -0.18001E-01   -0.21619E-01 43272   0.135E+00    0.922E-01
DAV:   4    -0.330488283915E+03   -0.20511E-02   -0.44277E-02 45680   0.635E-01    0.664E-01
DAV:   5    -0.330487793296E+03    0.49062E-03   -0.10821E-02 38000   0.352E-01    0.282E-01
DAV:   6    -0.330488020709E+03   -0.22741E-03   -0.34690E-03 46592   0.196E-01    0.121E-01
DAV:   7    -0.330488074913E+03   -0.54204E-04   -0.92515E-04 44712   0.104E-01    0.108E-01
DAV:   8    -0.330488080921E+03   -0.60076E-05   -0.18700E-04 39752   0.504E-02    0.597E-02
DAV:   9    -0.330488076504E+03    0.44166E-05   -0.83181E-05 30160   0.375E-02
  29 F= -.33048808E+03 E0= -.33048808E+03  d E =-.449226E-01  mag=     0.0000
       N       E                     dE             d eps       ncg     rms          rms(c)
DAV:   1    -0.330448375538E+03    0.39705E-01   -0.96636E+00 24544   0.824E+00    0.121E+00
DAV:   2    -0.330490878457E+03   -0.42503E-01   -0.44782E-01 41280   0.296E+00    0.596E-01
DAV:   3    -0.330492412687E+03   -0.15342E-02   -0.22421E-02 44296   0.526E-01    0.402E-01
DAV:   4    -0.330492336604E+03    0.76083E-04   -0.36734E-03 44304   0.230E-01    0.282E-01
DAV:   5    -0.330492232013E+03    0.10459E-03   -0.12566E-03 38672   0.145E-01    0.110E-01
DAV:   6    -0.330492278259E+03   -0.46246E-04   -0.49465E-04 46096   0.763E-02    0.553E-02
DAV:   7    -0.330492282406E+03   -0.41470E-05   -0.10542E-04 33416   0.423E-02    0.470E-02
DAV:   8    -0.330492280924E+03    0.14821E-05   -0.14878E-05 18680   0.234E-02
  30 F= -.33049228E+03 E0= -.33049228E+03  d E =-.491270E-01  mag=    -0.0000
       N       E                     dE             d eps       ncg     rms          rms(c)
DAV:   1    -0.330423212617E+03    0.69070E-01   -0.15493E+01 25344   0.126E+01    0.228E+00
DAV:   2    -0.330522221593E+03   -0.99009E-01   -0.11344E+00 39640   0.474E+00    0.983E-01
DAV:   3    -0.330524371836E+03   -0.21502E-02   -0.59519E-02 42424   0.985E-01    0.647E-01
DAV:   4    -0.330523684476E+03    0.68736E-03   -0.11174E-02 44984   0.454E-01    0.487E-01
DAV:   5    -0.330523120176E+03    0.56430E-03   -0.30648E-03 37704   0.243E-01    0.222E-01
DAV:   6    -0.330523118644E+03    0.15323E-05   -0.11897E-03 46472   0.140E-01    0.107E-01
DAV:   7    -0.330523131963E+03   -0.13320E-04   -0.30394E-04 42744   0.767E-02    0.835E-02
DAV:   8    -0.330523131881E+03    0.81873E-07   -0.58674E-05 29080   0.352E-02
  31 F= -.33052313E+03 E0= -.33052313E+03  d E =-.308510E-01  mag=    -0.0000
       N       E                     dE             d eps       ncg     rms          rms(c)
DAV:   1    -0.330496942437E+03    0.26190E-01   -0.50150E+00 25344   0.717E+00    0.129E+00
DAV:   2    -0.330528203012E+03   -0.31261E-01   -0.35844E-01 39544   0.269E+00    0.558E-01
DAV:   3    -0.330528731954E+03   -0.52894E-03   -0.17433E-02 42824   0.553E-01    0.365E-01
DAV:   4    -0.330528457427E+03    0.27453E-03   -0.30967E-03 45184   0.245E-01    0.277E-01
DAV:   5    -0.330528283712E+03    0.17372E-03   -0.87815E-04 37760   0.135E-01    0.125E-01
DAV:   6    -0.330528281398E+03    0.23145E-05   -0.35843E-04 46512   0.765E-02    0.617E-02
DAV:   7    -0.330528284217E+03   -0.28196E-05   -0.82397E-05 32104   0.436E-02
  32 F= -.33052828E+03 E0= -.33052828E+03  d E =-.360033E-01  mag=     0.0000
       N       E                     dE             d eps       ncg     rms          rms(c)
DAV:   1    -0.330477056506E+03    0.51225E-01   -0.99211E+00 25120   0.108E+01    0.191E+00
DAV:   2    -0.330554048828E+03   -0.76992E-01   -0.85563E-01 37872   0.394E+00    0.766E-01
DAV:   3    -0.330555293757E+03   -0.12449E-02   -0.37045E-02 43904   0.781E-01    0.505E-01
DAV:   4    -0.330554515634E+03    0.77812E-03   -0.65028E-03 45824   0.329E-01    0.338E-01
DAV:   5    -0.330554440684E+03    0.74950E-04   -0.15252E-03 40912   0.153E-01    0.136E-01
DAV:   6    -0.330554466140E+03   -0.25457E-04   -0.41172E-04 45496   0.776E-02    0.964E-02
DAV:   7    -0.330554473641E+03   -0.75005E-05   -0.83638E-05 34904   0.407E-02
  33 F= -.33055447E+03 E0= -.33055447E+03  d E =-.261894E-01  mag=     0.0000
       N       E                     dE             d eps       ncg     rms          rms(c)
DAV:   1    -0.330356217731E+03    0.19825E+00   -0.26323E+01 25120   0.177E+01    0.311E+00
DAV:   2    -0.330565243265E+03   -0.20903E+00   -0.23272E+00 38144   0.643E+00    0.126E+00
DAV:   3    -0.330569893480E+03   -0.46502E-02   -0.11093E-01 43768   0.127E+00    0.829E-01
DAV:   4    -0.330568106318E+03    0.17872E-02   -0.20102E-02 46104   0.542E-01    0.566E-01
DAV:   5    -0.330567889311E+03    0.21701E-03   -0.45512E-03 41208   0.252E-01    0.220E-01
DAV:   6    -0.330567949569E+03   -0.60258E-04   -0.12015E-03 45400   0.129E-01    0.159E-01
DAV:   7    -0.330567970668E+03   -0.21100E-04   -0.29131E-04 43016   0.698E-02    0.114E-01
DAV:   8    -0.330567971673E+03   -0.10048E-05   -0.78342E-05 33640   0.428E-02
  34 F= -.33056797E+03 E0= -.33056797E+03  d E =-.396875E-01  mag=     0.0000
       N       E                     dE             d eps       ncg     rms          rms(c)
DAV:   1    -0.330496939148E+03    0.71032E-01   -0.14750E+01 25120   0.115E+01    0.172E+00
DAV:   2    -0.330585131836E+03   -0.88193E-01   -0.93662E-01 39608   0.412E+00    0.981E-01
DAV:   3    -0.330588171438E+03   -0.30396E-02   -0.53322E-02 42848   0.860E-01    0.600E-01
DAV:   4    -0.330587865185E+03    0.30625E-03   -0.89199E-03 44824   0.376E-01    0.451E-01
DAV:   5    -0.330587374066E+03    0.49112E-03   -0.25023E-03 37544   0.211E-01    0.194E-01
DAV:   6    -0.330587409213E+03   -0.35147E-04   -0.10594E-03 46568   0.114E-01    0.907E-02
DAV:   7    -0.330587425744E+03   -0.16531E-04   -0.24820E-04 42528   0.557E-02    0.711E-02
DAV:   8    -0.330587424295E+03    0.14492E-05   -0.28067E-05 21960   0.265E-02
  35 F= -.33058742E+03 E0= -.33058742E+03  d E =-.194526E-01  mag=    -0.0000
       N       E                     dE             d eps       ncg     rms          rms(c)
DAV:   1    -0.330534379151E+03    0.53047E-01   -0.96963E+00 25120   0.928E+00    0.139E+00
DAV:   2    -0.330591299274E+03   -0.56920E-01   -0.60373E-01 39576   0.333E+00    0.788E-01
DAV:   3    -0.330592959707E+03   -0.16604E-02   -0.31633E-02 43296   0.687E-01    0.486E-01
DAV:   4    -0.330592673332E+03    0.28637E-03   -0.50640E-03 44448   0.286E-01    0.363E-01
DAV:   5    -0.330592350099E+03    0.32323E-03   -0.15097E-03 37816   0.166E-01    0.155E-01
DAV:   6    -0.330592372339E+03   -0.22240E-04   -0.67783E-04 45968   0.890E-02    0.713E-02
DAV:   7    -0.330592382407E+03   -0.10069E-04   -0.15706E-04 39728   0.451E-02    0.570E-02
DAV:   8    -0.330592380967E+03    0.14400E-05   -0.14848E-05 19032   0.226E-02
  36 F= -.33059238E+03 E0= -.33059238E+03  d E =-.244093E-01  mag=    -0.0000
       N       E                     dE             d eps       ncg     rms          rms(c)
DAV:   1    -0.330580503210E+03    0.11879E-01   -0.40002E+00 25248   0.644E+00    0.939E-01
DAV:   2    -0.330607535747E+03   -0.27033E-01   -0.29189E-01 38832   0.236E+00    0.479E-01
DAV:   3    -0.330607868608E+03   -0.33286E-03   -0.12312E-02 43192   0.454E-01    0.306E-01
DAV:   4    -0.330607663569E+03    0.20504E-03   -0.22131E-03 44048   0.205E-01    0.239E-01
DAV:   5    -0.330607515862E+03    0.14771E-03   -0.61363E-04 38256   0.111E-01    0.108E-01
DAV:   6    -0.330607498981E+03    0.16880E-04   -0.28193E-04 42680   0.681E-02    0.481E-02
DAV:   7    -0.330607504036E+03   -0.50541E-05   -0.80690E-05 31912   0.431E-02
  37 F= -.33060750E+03 E0= -.33060750E+03  d E =-.151231E-01  mag=     0.0000
       N       E                     dE             d eps       ncg     rms          rms(c)
DAV:   1    -0.330510098574E+03    0.97400E-01   -0.15595E+01 25120   0.127E+01    0.188E+00
DAV:   2    -0.330618449412E+03   -0.10835E+00   -0.11736E+00 38736   0.467E+00    0.956E-01
DAV:   3    -0.330620777500E+03   -0.23281E-02   -0.58101E-02 43008   0.917E-01    0.603E-01
DAV:   4    -0.330620122015E+03    0.65548E-03   -0.10364E-02 44176   0.422E-01    0.473E-01
DAV:   5    -0.330619545997E+03    0.57602E-03   -0.25736E-03 38304   0.214E-01    0.221E-01
DAV:   6    -0.330619459684E+03    0.86313E-04   -0.11169E-03 42376   0.138E-01    0.953E-02
DAV:   7    -0.330619485459E+03   -0.25775E-04   -0.37641E-04 40616   0.874E-02    0.889E-02
DAV:   8    -0.330619490615E+03   -0.51559E-05   -0.74288E-05 31856   0.329E-02
  38 F= -.33061949E+03 E0= -.33061949E+03  d E =-.271096E-01  mag=     0.0000
       N       E                     dE             d eps       ncg     rms          rms(c)
DAV:   1    -0.330608831177E+03    0.10654E-01   -0.47493E+00 25360   0.604E+00    0.954E-01
DAV:   2    -0.330630760979E+03   -0.21930E-01   -0.24432E-01 40384   0.221E+00    0.480E-01
DAV:   3    -0.330631529394E+03   -0.76842E-03   -0.13797E-02 44464   0.425E-01    0.312E-01
DAV:   4    -0.330631397352E+03    0.13204E-03   -0.22547E-03 43040   0.196E-01    0.237E-01
DAV:   5    -0.330631308952E+03    0.88400E-04   -0.74643E-04 37704   0.115E-01    0.101E-01
DAV:   6    -0.330631320718E+03   -0.11766E-04   -0.27570E-04 45736   0.592E-02    0.530E-02
DAV:   7    -0.330631325305E+03   -0.45873E-05   -0.48444E-05 26864   0.334E-02
  39 F= -.33063133E+03 E0= -.33063133E+03  d E =-.118347E-01  mag=     0.0000
       N       E                     dE             d eps       ncg     rms          rms(c)
DAV:   1    -0.330602907547E+03    0.28413E-01   -0.68979E+00 25312   0.728E+00    0.115E+00
DAV:   2    -0.330635309098E+03   -0.32402E-01   -0.36141E-01 40512   0.269E+00    0.576E-01
DAV:   3    -0.330636626134E+03   -0.13170E-02   -0.21788E-02 44352   0.517E-01    0.377E-01
DAV:   4    -0.330636445086E+03    0.18105E-03   -0.35746E-03 42624   0.245E-01    0.289E-01
DAV:   5    -0.330636338325E+03    0.10676E-03   -0.11377E-03 37584   0.142E-01    0.126E-01
DAV:   6    -0.330636350844E+03   -0.12519E-04   -0.41553E-04 46560   0.741E-02    0.640E-02
DAV:   7    -0.330636358308E+03   -0.74646E-05   -0.83362E-05 30976   0.417E-02
  40 F= -.33063636E+03 E0= -.33063636E+03  d E =-.168677E-01  mag=    -0.0000
       N       E                     dE             d eps       ncg     rms          rms(c)
DAV:   1    -0.330616807172E+03    0.19544E-01   -0.51992E+00 25088   0.691E+00    0.919E-01
DAV:   2    -0.330645213611E+03   -0.28406E-01   -0.30418E-01 38232   0.233E+00    0.535E-01
DAV:   3    -0.330646016752E+03   -0.80314E-03   -0.16230E-02 44056   0.508E-01    0.345E-01
DAV:   4    -0.330645962793E+03    0.53959E-04   -0.26304E-03 41664   0.214E-01    0.280E-01
DAV:   5    -0.330645841141E+03    0.12165E-03   -0.65301E-04 39424   0.118E-01    0.145E-01
DAV:   6    -0.330645795942E+03    0.45199E-04   -0.33408E-04 39736   0.822E-02    0.539E-02
DAV:   7    -0.330645804584E+03   -0.86414E-05   -0.13165E-04 36592   0.536E-02    0.403E-02
DAV:   8    -0.330645805909E+03   -0.13251E-05   -0.12695E-05 17872   0.210E-02
  41 F= -.33064581E+03 E0= -.33064581E+03  d E =-.944760E-02  mag=    -0.0000
       N       E                     dE             d eps       ncg     rms          rms(c)
DAV:   1    -0.330632406653E+03    0.13398E-01   -0.28520E+00 25088   0.511E+00    0.676E-01
DAV:   2    -0.330647638793E+03   -0.15232E-01   -0.16312E-01 37896   0.171E+00    0.391E-01
DAV:   3    -0.330648046296E+03   -0.40750E-03   -0.85321E-03 44152   0.377E-01    0.254E-01
DAV:   4    -0.330648008962E+03    0.37334E-04   -0.13760E-03 41888   0.155E-01    0.207E-01
DAV:   5    -0.330647945658E+03    0.63304E-04   -0.32481E-04 38696   0.851E-02    0.110E-01
DAV:   6    -0.330647916241E+03    0.29417E-04   -0.18486E-04 38304   0.614E-02    0.406E-02
DAV:   7    -0.330647920493E+03   -0.42512E-05   -0.68072E-05 29296   0.407E-02
  42 F= -.33064792E+03 E0= -.33064792E+03  d E =-.115622E-01  mag=     0.0000
       N       E                     dE             d eps       ncg     rms          rms(c)
DAV:   1    -0.330615560265E+03    0.32356E-01   -0.47041E+00 25088   0.741E+00    0.878E-01
DAV:   2    -0.330653869499E+03   -0.38309E-01   -0.40641E-01 37792   0.264E+00    0.537E-01
DAV:   3    -0.330654476943E+03   -0.60744E-03   -0.15698E-02 44720   0.496E-01    0.382E-01
DAV:   4    -0.330654172009E+03    0.30493E-03   -0.26437E-03 44304   0.221E-01    0.297E-01
DAV:   5    -0.330654066987E+03    0.10502E-03   -0.60175E-04 38360   0.114E-01    0.152E-01
DAV:   6    -0.330654019699E+03    0.47288E-04   -0.35380E-04 40232   0.830E-02    0.586E-02
DAV:   7    -0.330654028951E+03   -0.92518E-05   -0.13609E-04 39272   0.557E-02    0.493E-02
DAV:   8    -0.330654029417E+03   -0.46621E-06   -0.13290E-05 17784   0.229E-02
  43 F= -.33065403E+03 E0= -.33065403E+03  d E =-.610892E-02  mag=     0.0000
       N       E                     dE             d eps       ncg     rms          rms(c)
DAV:   1    -0.330653620017E+03    0.40893E-03   -0.55557E-02 25952   0.806E-01    0.990E-02
DAV:   2    -0.330654099434E+03   -0.47942E-03   -0.50595E-03 38472   0.308E-01    0.583E-02
DAV:   3    -0.330654107715E+03   -0.82810E-05   -0.19946E-04 42360   0.565E-02    0.422E-02
DAV:   4    -0.330654102859E+03    0.48551E-05   -0.20334E-05 20344   0.253E-02
  44 F= -.33065410E+03 E0= -.33065410E+03  d E =-.618237E-02  mag=    -0.0000
       N       E                     dE             d eps       ncg     rms          rms(c)
DAV:   1    -0.330644356359E+03    0.97514E-02   -0.16191E+00 25184   0.438E+00    0.680E-01
DAV:   2    -0.330657636396E+03   -0.13280E-01   -0.14392E-01 37040   0.163E+00    0.356E-01
DAV:   3    -0.330657778988E+03   -0.14259E-03   -0.55482E-03 43336   0.315E-01    0.209E-01
DAV:   4    -0.330657670698E+03    0.10829E-03   -0.99435E-04 44056   0.139E-01    0.169E-01
DAV:   5    -0.330657619489E+03    0.51208E-04   -0.29426E-04 38680   0.791E-02    0.630E-02
DAV:   6    -0.330657620923E+03   -0.14334E-05   -0.10275E-04 38312   0.412E-02    0.355E-02
DAV:   7    -0.330657622499E+03   -0.15760E-05   -0.18871E-05 18152   0.282E-02
  45 F= -.33065762E+03 E0= -.33065762E+03  d E =-.351964E-02  mag=     0.0000
       N       E                     dE             d eps       ncg     rms          rms(c)
DAV:   1    -0.330653905045E+03    0.37159E-02   -0.52602E-01 25224   0.249E+00    0.392E-01
DAV:   2    -0.330658208112E+03   -0.43031E-02   -0.46593E-02 37184   0.931E-01    0.202E-01
DAV:   3    -0.330658264100E+03   -0.55988E-04   -0.18680E-03 43696   0.179E-01    0.119E-01
DAV:   4    -0.330658229386E+03    0.34714E-04   -0.32420E-04 43616   0.791E-02    0.979E-02
DAV:   5    -0.330658214056E+03    0.15329E-04   -0.86159E-05 33312   0.442E-02    0.378E-02
DAV:   6    -0.330658212962E+03    0.10947E-05   -0.23559E-05 19704   0.256E-02
  46 F= -.33065821E+03 E0= -.33065821E+03  d E =-.411010E-02  mag=    -0.0000
       N       E                     dE             d eps       ncg     rms          rms(c)
DAV:   1    -0.330653459636E+03    0.47544E-02   -0.18414E+00 26368   0.409E+00    0.131E+00
DAV:   2    -0.330661148275E+03   -0.76886E-02   -0.12301E-01 40184   0.163E+00    0.364E-01
DAV:   3    -0.330661038912E+03    0.10936E-03   -0.63800E-03 42856   0.330E-01    0.255E-01
DAV:   4    -0.330660850096E+03    0.18882E-03   -0.11998E-03 41896   0.160E-01    0.158E-01
DAV:   5    -0.330660766380E+03    0.83716E-04   -0.54440E-04 38368   0.903E-02    0.861E-02
DAV:   6    -0.330660773543E+03   -0.71624E-05   -0.12620E-04 39560   0.442E-02    0.500E-02
DAV:   7    -0.330660773163E+03    0.37912E-06   -0.12034E-05 17984   0.236E-02
  47 F= -.33066077E+03 E0= -.33066077E+03  d E =-.256020E-02  mag=    -0.0000
       N       E                     dE             d eps       ncg     rms          rms(c)
DAV:   1    -0.330660586969E+03    0.18657E-03   -0.59138E-02 26592   0.734E-01    0.234E-01
DAV:   2    -0.330660849769E+03   -0.26280E-03   -0.41674E-03 39496   0.306E-01    0.718E-02
DAV:   3    -0.330660847790E+03    0.19791E-05   -0.21116E-04 42816   0.589E-02    0.481E-02
DAV:   4    -0.330660838730E+03    0.90604E-05   -0.25960E-05 22248   0.292E-02
  48 F= -.33066084E+03 E0= -.33066084E+03  d E =-.262577E-02  mag=     0.0000
       N       E                     dE             d eps       ncg     rms          rms(c)
DAV:   1    -0.330653198149E+03    0.76496E-02   -0.99952E-01 24064   0.341E+00    0.520E-01
DAV:   2    -0.330662236899E+03   -0.90388E-02   -0.96300E-02 36696   0.125E+00    0.306E-01
DAV:   3    -0.330662448290E+03   -0.21139E-03   -0.41830E-03 42536   0.273E-01    0.186E-01
DAV:   4    -0.330662404846E+03    0.43444E-04   -0.67206E-04 43200   0.115E-01    0.143E-01
DAV:   5    -0.330662382116E+03    0.22730E-04   -0.20993E-04 36720   0.674E-02    0.519E-02
DAV:   6    -0.330662387954E+03   -0.58384E-05   -0.66304E-05 30856   0.349E-02
  49 F= -.33066239E+03 E0= -.33066239E+03  d E =-.154922E-02  mag=    -0.0000
       N       E                     dE             d eps       ncg     rms          rms(c)
DAV:   1    -0.330661948870E+03    0.43325E-03   -0.54604E-02 24416   0.798E-01    0.126E-01
DAV:   2    -0.330662449962E+03   -0.50109E-03   -0.53551E-03 37208   0.295E-01    0.751E-02
DAV:   3    -0.330662466253E+03   -0.16291E-04   -0.25746E-04 41768   0.670E-02    0.441E-02
DAV:   4    -0.330662464062E+03    0.21909E-05   -0.27177E-05 23832   0.290E-02
  50 F= -.33066246E+03 E0= -.33066246E+03  d E =-.162533E-02  mag=    -0.0000
       N       E                     dE             d eps       ncg     rms          rms(c)
DAV:   1    -0.330654229824E+03    0.82364E-02   -0.11058E+00 25152   0.363E+00    0.454E-01
DAV:   2    -0.330663471958E+03   -0.92421E-02   -0.98472E-02 38504   0.131E+00    0.276E-01
DAV:   3    -0.330663674964E+03   -0.20301E-03   -0.42809E-03 43632   0.261E-01    0.185E-01
DAV:   4    -0.330663614928E+03    0.60035E-04   -0.60488E-04 44080   0.103E-01    0.142E-01
DAV:   5    -0.330663580759E+03    0.34169E-04   -0.16561E-04 36264   0.603E-02    0.665E-02
DAV:   6    -0.330663576182E+03    0.45772E-05   -0.60840E-05 29760   0.362E-02
  51 F= -.33066358E+03 E0= -.33066358E+03  d E =-.111212E-02  mag=    -0.0000
       N       E                     dE             d eps       ncg     rms          rms(c)
DAV:   1    -0.330663575874E+03    0.48855E-05   -0.26117E-04 30064   0.598E-02    0.257E-02
DAV:   2    -0.330663578241E+03   -0.23667E-05   -0.35148E-05 22616   0.273E-02
  52 F= -.33066358E+03 E0= -.33066358E+03  d E =-.111418E-02  mag=    -0.0000
       N       E                     dE             d eps       ncg     rms          rms(c)
DAV:   1    -0.330658593297E+03    0.49826E-02   -0.92472E-01 25616   0.311E+00    0.548E-01
DAV:   2    -0.330664465509E+03   -0.58722E-02   -0.66367E-02 38744   0.111E+00    0.231E-01
DAV:   3    -0.330664558111E+03   -0.92602E-04   -0.29766E-03 43944   0.225E-01    0.140E-01
DAV:   4    -0.330664522656E+03    0.35455E-04   -0.51639E-04 42768   0.100E-01    0.113E-01
DAV:   5    -0.330664499388E+03    0.23268E-04   -0.13929E-04 36760   0.562E-02    0.480E-02
DAV:   6    -0.330664496716E+03    0.26716E-05   -0.29673E-05 21976   0.287E-02
  53 F= -.33066450E+03 E0= -.33066450E+03  d E =-.918476E-03  mag=    -0.0000
       N       E                     dE             d eps       ncg     rms          rms(c)
DAV:   1    -0.330664210546E+03    0.28884E-03   -0.43163E-02 25904   0.674E-01    0.116E-01
DAV:   2    -0.330664521838E+03   -0.31129E-03   -0.35035E-03 38576   0.265E-01    0.524E-02
DAV:   3    -0.330664530370E+03   -0.85314E-05   -0.17210E-04 40064   0.522E-02    0.302E-02
DAV:   4    -0.330664528244E+03    0.21255E-05   -0.17778E-05 20520   0.258E-02
  54 F= -.33066453E+03 E0= -.33066453E+03  d E =-.950004E-03  mag=    -0.0000
       N       E                     dE             d eps       ncg     rms          rms(c)
DAV:   1    -0.330662740226E+03    0.17901E-02   -0.47386E-01 25184   0.204E+00    0.320E-01
DAV:   2    -0.330665150504E+03   -0.24103E-02   -0.26248E-02 38272   0.721E-01    0.143E-01
DAV:   3    -0.330665219012E+03   -0.68508E-04   -0.13062E-03 44480   0.131E-01    0.980E-02
DAV:   4    -0.330665193295E+03    0.25717E-04   -0.17537E-04 38808   0.543E-02    0.635E-02
DAV:   5    -0.330665190756E+03    0.25388E-05   -0.43178E-05 25312   0.334E-02
  55 F= -.33066519E+03 E0= -.33066519E+03  d E =-.662512E-03  mag=    -0.0000
       N       E                     dE             d eps       ncg     rms          rms(c)
DAV:   1    -0.330664046447E+03    0.11468E-02   -0.23553E-01 25184   0.144E+00    0.223E-01
DAV:   2    -0.330665262588E+03   -0.12161E-02   -0.13263E-02 38120   0.512E-01    0.102E-01
DAV:   3    -0.330665297674E+03   -0.35086E-04   -0.64966E-04 44448   0.931E-02    0.681E-02
DAV:   4    -0.330665285513E+03    0.12161E-04   -0.79635E-05 32544   0.386E-02    0.461E-02
DAV:   5    -0.330665284509E+03    0.10038E-05   -0.15301E-05 17784   0.262E-02
  56 F= -.33066528E+03 E0= -.33066528E+03  d E =-.756265E-03  mag=     0.0000
       N       E                     dE             d eps       ncg     rms          rms(c)
DAV:   1    -0.330663189509E+03    0.20960E-02   -0.40938E-01 25216   0.198E+00    0.258E-01
DAV:   2    -0.330665634298E+03   -0.24448E-02   -0.26420E-02 38432   0.715E-01    0.133E-01
DAV:   3    -0.330665714686E+03   -0.80387E-04   -0.13741E-03 43784   0.139E-01    0.903E-02
DAV:   4    -0.330665697921E+03    0.16765E-04   -0.18993E-04 40416   0.577E-02    0.728E-02
DAV:   5    -0.330665692099E+03    0.58226E-05   -0.32642E-05 23408   0.310E-02
  57 F= -.33066569E+03 E0= -.33066569E+03  d E =-.407589E-03  mag=    -0.0000
       N       E                     dE             d eps       ncg     rms          rms(c)
DAV:   1    -0.330665147604E+03    0.55032E-03   -0.81372E-02 25264   0.890E-01    0.113E-01
DAV:   2    -0.330665682058E+03   -0.53445E-03   -0.57577E-03 39584   0.344E-01    0.616E-02
DAV:   3    -0.330665698249E+03   -0.16191E-04   -0.26452E-04 42672   0.603E-02    0.407E-02
DAV:   4    -0.330665694073E+03    0.41762E-05   -0.30542E-05 24520   0.278E-02
  58 F= -.33066569E+03 E0= -.33066569E+03  d E =-.409564E-03  mag=    -0.0000
       N       E                     dE             d eps       ncg     rms          rms(c)
DAV:   1    -0.330664689015E+03    0.10092E-02   -0.23575E-01 26096   0.153E+00    0.349E-01
DAV:   2    -0.330665926229E+03   -0.12372E-02   -0.16196E-02 39336   0.600E-01    0.142E-01
DAV:   3    -0.330665919235E+03    0.69942E-05   -0.76901E-04 43576   0.115E-01    0.938E-02
DAV:   4    -0.330665896494E+03    0.22740E-04   -0.14213E-04 39960   0.547E-02    0.644E-02
DAV:   5    -0.330665884757E+03    0.11737E-04   -0.50231E-05 27432   0.364E-02    0.314E-02
DAV:   6    -0.330665883925E+03    0.83288E-06   -0.11904E-05 17328   0.226E-02
  59 F= -.33066588E+03 E0= -.33066588E+03  d E =-.189852E-03  mag=     0.0000
       N       E                     dE             d eps       ncg     rms          rms(c)
DAV:   1    -0.330665884187E+03    0.57087E-06   -0.32307E-04 29952   0.592E-02    0.204E-02
DAV:   2    -0.330665885984E+03   -0.17970E-05   -0.28510E-05 17416   0.257E-02
  60 F= -.33066589E+03 E0= -.33066589E+03  d E =-.191911E-03  mag=     0.0000
       N       E                     dE             d eps       ncg     rms          rms(c)
DAV:   1    -0.330665228110E+03    0.65608E-03   -0.15304E-01 24784   0.121E+00    0.237E-01
DAV:   2    -0.330666111546E+03   -0.88344E-03   -0.10382E-02 39376   0.466E-01    0.911E-02
DAV:   3    -0.330666123019E+03   -0.11472E-04   -0.41247E-04 43064   0.853E-02    0.617E-02
DAV:   4    -0.330666110167E+03    0.12851E-04   -0.52221E-05 29808   0.373E-02    0.448E-02
DAV:   5    -0.330666106736E+03    0.34308E-05   -0.21267E-05 18768   0.279E-02
  61 F= -.33066611E+03 E0= -.33066611E+03  d E =-.220753E-03  mag=     0.0000
       N       E                     dE             d eps       ncg     rms          rms(c)
DAV:   1    -0.330665620750E+03    0.48942E-03   -0.85886E-02 24960   0.906E-01    0.173E-01
DAV:   2    -0.330666127939E+03   -0.50719E-03   -0.59228E-03 39392   0.355E-01    0.695E-02
DAV:   3    -0.330666138365E+03   -0.10427E-04   -0.25060E-04 42904   0.648E-02    0.461E-02
DAV:   4    -0.330666131361E+03    0.70041E-05   -0.22211E-05 21200   0.284E-02
  62 F= -.33066613E+03 E0= -.33066613E+03  d E =-.245378E-03  mag=     0.0000
       N       E                     dE             d eps       ncg     rms          rms(c)
DAV:   1    -0.330665085164E+03    0.10532E-02   -0.14464E-01 25640   0.131E+00    0.208E-01
DAV:   2    -0.330666218956E+03   -0.11338E-02   -0.12902E-02 38000   0.508E-01    0.112E-01
DAV:   3    -0.330666240836E+03   -0.21881E-04   -0.59111E-04 41776   0.104E-01    0.740E-02
DAV:   4    -0.330666229006E+03    0.11830E-04   -0.89452E-05 35752   0.467E-02    0.656E-02
DAV:   5    -0.330666222779E+03    0.62271E-05   -0.18104E-05 18352   0.281E-02
  63 F= -.33066622E+03 E0= -.33066622E+03  d E =-.914182E-04  mag=    -0.0000
       N       E                     dE             d eps       ncg     rms          rms(c)
DAV:   1    -0.330666134461E+03    0.94545E-04   -0.13433E-02 25968   0.394E-01    0.729E-02
DAV:   2    -0.330666241564E+03   -0.10710E-03   -0.12163E-03 38392   0.158E-01    0.326E-02
DAV:   3    -0.330666241405E+03    0.15977E-06   -0.38961E-05 24904   0.320E-02
  64 F= -.33066624E+03 E0= -.33066624E+03  d E =-.110043E-03  mag=    -0.0000
       N       E                     dE             d eps       ncg     rms          rms(c)
DAV:   1    -0.330666012469E+03    0.22910E-03   -0.83159E-02 26240   0.960E-01    0.366E-01
DAV:   2    -0.330666363881E+03   -0.35141E-03   -0.76249E-03 38976   0.413E-01    0.842E-02
DAV:   3    -0.330666335150E+03    0.28731E-04   -0.34016E-04 41816   0.780E-02    0.657E-02
DAV:   4    -0.330666319152E+03    0.15999E-04   -0.46004E-05 27000   0.376E-02    0.388E-02
DAV:   5    -0.330666314659E+03    0.44929E-05   -0.24719E-05 19016   0.261E-02
  65 F= -.33066631E+03 E0= -.33066631E+03  d E =-.732543E-04  mag=    -0.0000
       N       E                     dE             d eps       ncg     rms          rms(c)
DAV:   1    -0.330666299546E+03    0.19606E-04   -0.60833E-03 25976   0.259E-01    0.110E-01
DAV:   2    -0.330666327137E+03   -0.27591E-04   -0.59390E-04 38784   0.114E-01    0.242E-02
DAV:   3    -0.330666322861E+03    0.42753E-05   -0.14844E-05 17768   0.215E-02
  66 F= -.33066632E+03 E0= -.33066632E+03  d E =-.814568E-04  mag=    -0.0000
