       N       E                     dE             d eps       ncg     rms          rms(c)
DAV:   1     0.442600984932E+04    0.44260E+04   -0.84209E+04 28344   0.176E+03
DAV:   2     0.845068716193E+03   -0.35809E+04   -0.32306E+04 26640   0.528E+02
DAV:   3    -0.193305283768E+03   -0.10384E+04   -0.94978E+03 28456   0.258E+02
DAV:   4    -0.339619606163E+03   -0.14631E+03   -0.14410E+03 38296   0.104E+02
DAV:   5    -0.345436632034E+03   -0.58170E+01   -0.57829E+01 41352   0.253E+01    0.112E+02
DAV:   6    -0.282129769457E+03    0.63307E+02   -0.42024E+02 40256   0.888E+01    0.106E+02
DAV:   7    -0.306926992236E+03   -0.24797E+02   -0.89686E+01 34360   0.319E+01    0.656E+01
DAV:   8    -0.310322229162E+03   -0.33952E+01   -0.11478E+01 36160   0.115E+01    0.314E+01
DAV:   9    -0.311779852967E+03   -0.14576E+01   -0.61332E+00 34096   0.744E+00    0.847E+00
DAV:  10    -0.311618274491E+03    0.16158E+00   -0.19240E+00 34560   0.610E+00    0.431E+00
DAV:  11    -0.311522748869E+03    0.95526E-01   -0.36484E-01 34200   0.246E+00    0.285E+00
DAV:  12    -0.311526644514E+03   -0.38956E-02   -0.11725E-01 36904   0.109E+00    0.211E+00
DAV:  13    -0.311534363800E+03   -0.77193E-02   -0.32327E-02 33112   0.850E-01    0.132E+00
DAV:  14    -0.311536641071E+03   -0.22773E-02   -0.22849E-02 32184   0.618E-01    0.905E-01
DAV:  15    -0.311537101223E+03   -0.46015E-03   -0.14284E-02 33808   0.394E-01    0.492E-01
DAV:  16    -0.311536965994E+03    0.13523E-03   -0.29341E-03 32952   0.225E-01    0.260E-01
DAV:  17    -0.311537071252E+03   -0.10526E-03   -0.85398E-04 40312   0.929E-02    0.125E-01
DAV:  18    -0.311537100613E+03   -0.29362E-04   -0.16539E-04 32728   0.499E-02    0.788E-02
DAV:  19    -0.311537102718E+03   -0.21045E-05   -0.71098E-05 28720   0.383E-02
   1 F= -.31153710E+03 E0= -.31153710E+03  d E =0.000000E+00  mag=     1.2759
