# LLTO (Li-La-Ti-O)
 
120 atoms
 
4 atom types

0.0 7.7895140	xlo xhi
0.0 7.8438410	ylo yhi
0.0 23.636420	zlo zhi

Masses

1 138.90547  # La
2 6.9410000  # Li
3 15.999400  # O
4 47.867000  # Ti

Atoms # charge

1	1	1.8	3.89475893	0.00000000	19.69701707
2	1	1.8	0.00000462	0.00000000	19.70422042
3	1	1.8	3.89476284	0.00000000	11.82560003
4	1	1.8	3.89477133	3.92192025	3.94331504
5	1	1.8	0.00001167	3.92192025	11.82560509
6	1	1.8	0.00000960	0.00000000	11.81773170
7	1	1.8	0.00001102	3.92192025	3.94243614
8	1	1.8	3.89477109	3.92192025	11.81772335
9	1	1.8	3.89476468	0.00000000	3.94243295
10	1	1.8	3.89477217	3.92192025	19.70429293
11	1	1.8	0.00001135	3.92192025	19.69706817
12	1	1.8	0.00000843	0.00000000	3.94333273
13	2	0.6	5.86722888	0.00000000	7.88238289
14	2	0.6	5.81607051	3.92192025	7.88238117
15	2	0.6	1.92240384	0.00000000	7.88238178
16	2	0.6	1.97352229	3.92192025	7.88237872
17	2	0.6	5.80518758	0.00000000	15.76107396
18	2	0.6	5.87789487	3.92192025	15.76111764
19	2	0.6	1.98422868	7.84384050	15.76111066
20	2	0.6	1.91158863	3.92192025	15.76111784
21	2	0.6	5.86091785	0.00000000	0.00348352
22	2	0.6	5.82222394	3.92192025	0.00349375
23	2	0.6	1.92857079	0.00000000	0.00349854
24	2	0.6	1.96724987	3.92192025	0.00348913
25	3	-1.2	5.79763416	0.00000000	13.75116807
26	3	-1.2	5.84159426	1.96095415	0.00345617
27	3	-1.2	3.89476742	2.00369633	13.63876949
28	3	-1.2	3.89476392	1.94608703	2.12599762
29	3	-1.2	3.89476612	1.93763837	5.75992701
30	3	-1.2	5.86664413	0.00000000	5.87224890
31	3	-1.2	5.87873392	0.00000000	9.89245187
32	3	-1.2	3.89476822	1.92541335	10.00483273
33	3	-1.2	5.84271102	1.96096081	3.94298405
34	3	-1.2	5.84162137	1.96095632	7.88243065
35	3	-1.2	5.84269993	1.96096970	11.82184475
36	3	-1.2	5.85791686	0.00000000	2.01368011
37	3	-1.2	3.89476340	1.93130387	21.51741907
38	3	-1.2	3.89476247	2.00252791	17.88350320
39	3	-1.2	5.84271569	5.88284898	19.70041155
40	3	-1.2	5.88533062	3.92192025	17.77105875
41	3	-1.2	3.89476247	5.84131259	17.88350320
42	3	-1.2	5.84160149	5.88289765	15.76111775
43	3	-1.2	5.88650268	3.92192025	13.75119576
44	3	-1.2	3.89476742	5.84014417	13.63876949
45	3	-1.2	5.84269993	5.88287080	11.82184475
46	3	-1.2	5.80540216	3.92192025	9.89243889
47	3	-1.2	3.89476822	5.91842715	10.00483273
48	3	-1.2	5.84162137	5.88288418	7.88243065
49	3	-1.2	5.81749329	3.92192025	5.87225574
50	3	-1.2	3.89476612	5.90620213	5.75992701
51	3	-1.2	5.84271102	5.88287969	3.94298405
52	3	-1.2	5.82620776	3.92192025	2.01368490
53	3	-1.2	3.89476392	5.89775347	2.12599762
54	3	-1.2	5.84159426	5.88288635	0.00345617
55	3	-1.2	5.87256548	0.00000000	21.62982251
56	3	-1.2	5.84271569	1.96099152	19.70041155
57	3	-1.2	5.79878950	0.00000000	17.77112268
58	3	-1.2	5.84160149	1.96094285	15.76111775
59	3	-1.2	3.89476340	5.91253664	21.51741907
60	3	-1.2	1.97795673	3.92192025	21.62978753
61	3	-1.2	1.94680919	5.88286865	19.70040647
62	3	-1.2	1.94792862	5.88287593	0.00345465
63	3	-1.2	1.91696347	0.00000000	21.62982797
64	3	-1.2	0.00000738	5.85316251	21.51847181
65	3	-1.2	1.94680919	1.96097185	19.70040647
66	3	-1.2	1.99073410	7.84384050	17.77108854
67	3	-1.2	0.00000438	1.91940277	17.88245945
68	3	-1.2	1.94791878	1.96095953	15.76111746
69	3	-1.2	1.99190031	0.00000000	13.75118373
70	3	-1.2	0.00001014	1.91821985	13.63978581
71	3	-1.2	1.94683588	1.96095501	11.82184420
72	3	-1.2	1.91080582	0.00000000	9.89243907
73	3	-1.2	0.00001085	1.99650542	10.00381328
74	3	-1.2	1.94792397	1.96096616	7.88242953
75	3	-1.2	1.92289140	0.00000000	5.87225699
76	3	-1.2	0.00000887	1.98428086	5.76096139
77	3	-1.2	1.94681675	1.96095027	3.94298244
78	3	-1.2	1.93161552	0.00000000	2.01366445
79	3	-1.2	0.00000744	1.97584882	2.12494289
80	3	-1.2	1.94792862	1.96096457	0.00345465
81	3	-1.2	0.00000744	5.86799169	2.12494289
82	3	-1.2	1.96331760	3.92192025	2.01369159
83	3	-1.2	0.00000738	1.99067799	21.51847181
84	3	-1.2	5.81156658	3.92192025	21.62980517
85	3	-1.2	1.94683588	5.88288549	11.82184420
86	3	-1.2	1.94791878	5.88288097	15.76111746
87	3	-1.2	0.00000438	5.92443773	17.88245945
88	3	-1.2	1.98413238	3.92192025	9.89245003
89	3	-1.2	0.00001085	5.84733508	10.00381328
90	3	-1.2	0.00001014	5.92562066	13.63978581
91	3	-1.2	1.90418932	3.92192025	17.77107414
92	3	-1.2	1.94792397	5.88287434	7.88242953
93	3	-1.2	1.97203644	3.92192025	5.87224386
94	3	-1.2	0.00000887	5.85955964	5.76096139
95	3	-1.2	1.94681675	5.88289023	3.94298244
96	3	-1.2	1.90303149	3.92192025	13.75118069
97	4	2.4	1.94737010	1.96096030	5.99369705
98	4	2.4	5.84215873	1.96096358	1.89222255
99	4	2.4	5.84216311	5.88287042	21.75117396
100	4	2.4	5.84215742	5.88287478	17.64971321
101	4	2.4	1.94737145	1.96096698	1.89222352
102	4	2.4	5.84215989	1.96095885	5.99369756
103	4	2.4	1.94737375	1.96096093	9.77108958
104	4	2.4	5.84216294	5.88288093	13.87252567
105	4	2.4	1.94736605	5.88286969	21.75117063
106	4	2.4	5.84215742	1.96096573	17.64971321
107	4	2.4	1.94737470	1.96096073	13.87252421
108	4	2.4	1.94737010	5.88288020	5.99369705
109	4	2.4	5.84216002	1.96095963	9.77109110
110	4	2.4	1.94737470	5.88287977	13.87252421
111	4	2.4	1.94736810	1.96096994	17.64971449
112	4	2.4	5.84215989	5.88288165	5.99369756
113	4	2.4	1.94736605	1.96097081	21.75117063
114	4	2.4	5.84215873	5.88287692	1.89222255
115	4	2.4	5.84216294	1.96095957	13.87252567
116	4	2.4	1.94737375	5.88287958	9.77108958
117	4	2.4	1.94737145	5.88287352	1.89222352
118	4	2.4	5.84216311	1.96097008	21.75117396
119	4	2.4	1.94736810	5.88287056	17.64971449
120	4	2.4	5.84216002	5.88288087	9.77109110
