# Converted from POSCAR to lammps format

58 atoms

4 atom types

0.000000   10.948160   xlo xhi
0.000000    4.740692   ylo yhi
0.000000   13.409000   zlo zhi

 -2.737041    0.000000    0.000000   xy xz yz

Masses

1 138.90547  # La
2 6.9410000  # Li
3 47.867000  # Ti
4 15.999400  # O

Atoms # charge

1	1	1.8	2.74241400	1.60947600	7.94600500
2	1	1.8	8.18406100	1.60633700	7.89823800
3	1	1.8	0.05141700	3.24460900	12.29377300
4	1	1.8	5.49981900	3.22180100	12.36052300
5	1	1.8	0.00841100	3.19798100	5.57478500
6	1	1.8	5.43515200	3.16321600	5.58176000
7	1	1.8	0.05043800	0.03589900	3.28313400
8	2	0.6	5.55006100	0.06732800	10.76933200
9	2	0.6	3.06753100	2.32571500	1.40617500
10	2	0.6	8.60122700	2.19922700	0.90062200
11	3	2.4	0.01917500	0.11841400	-0.01920900
12	3	2.4	5.53878900	0.12618900	0.17693100
13	3	2.4	-0.00659900	0.04048300	6.77768400
14	3	2.4	5.46557500	0.01053300	6.73888600
15	3	2.4	2.80761500	1.66116700	4.35779400
16	3	2.4	8.12364000	1.57205200	4.35901400
17	3	2.4	2.79005400	1.62951000	11.23403800
18	3	2.4	8.24740200	1.64621300	11.20212200
19	3	2.4	-0.00470600	3.20720900	9.07041100
20	3	2.4	5.47542500	3.19364900	9.07808700
21	3	2.4	0.12392200	3.29007600	2.18884500
22	3	2.4	5.52234700	3.16921700	2.22037000
23	4	-1.2	2.86295000	-0.00021800	3.38990500
24	4	-1.2	5.82196800	4.67999400	3.46126300
25	4	-1.2	2.43697200	0.00979700	10.06328500
26	4	-1.2	5.10288100	4.70896400	10.14038600
27	4	-1.2	-1.52599300	2.62746300	3.43601600
28	4	-1.2	3.95864400	2.64205200	3.37032900
29	4	-1.2	9.66491200	2.14296900	10.04361600
30	4	-1.2	4.25319400	2.04802800	10.00755300
31	4	-1.2	1.13420200	2.17385700	3.46750800
32	4	-1.2	6.63340000	2.18050500	3.45854300
33	4	-1.2	1.51318700	2.67417600	10.08183100
34	4	-1.2	6.95864500	2.58251700	10.06423900
35	4	-1.2	0.32124600	1.64422400	7.75430700
36	4	-1.2	5.75269200	1.66906500	7.72394900
37	4	-1.2	-0.36146400	1.55353500	1.18800500
38	4	-1.2	5.01075000	1.68866900	1.03124200
39	4	-1.2	1.15523200	4.21069400	7.77395900
40	4	-1.2	6.61113100	4.21756000	7.77209700
41	4	-1.2	1.52593200	3.56717800	0.99538900
42	4	-1.2	7.03682300	3.59537500	1.16700300
43	4	-1.2	-1.47739100	3.65284600	7.71417000
44	4	-1.2	3.96480400	3.70426500	7.80753100
45	4	-1.2	-1.24720400	4.12487400	1.14018900
46	4	-1.2	4.28841000	4.20396400	1.07026400
47	4	-1.2	3.09060800	3.21725300	12.22271800
48	4	-1.2	8.52927000	3.11015800	12.39639400
49	4	-1.2	2.45065100	3.08609800	5.72123100
50	4	-1.2	7.85509200	3.15988700	5.61755100
51	4	-1.2	1.25643000	1.08085500	12.36548000
52	4	-1.2	6.63432600	1.08100700	12.29794100
53	4	-1.2	1.43095400	0.51295700	5.55162300
54	4	-1.2	7.03107500	0.56284400	5.70465400
55	4	-1.2	4.00421800	0.50939500	12.21344800
56	4	-1.2	9.42128800	0.55040500	12.35829600
57	4	-1.2	4.14874200	1.04299300	5.67237100
58	4	-1.2	9.69608100	1.08650500	5.63898800
