       N       E                     dE             d eps       ncg     rms          rms(c)
DAV:   1     0.659251491439E+04    0.65925E+04   -0.16397E+05  2580   0.203E+03
DAV:   2     0.141896756228E+04   -0.51735E+04   -0.46006E+04  2304   0.584E+02
DAV:   3    -0.168250547494E+03   -0.15872E+04   -0.13794E+04  2592   0.279E+02
DAV:   4    -0.567780495685E+03   -0.39953E+03   -0.36610E+03  2784   0.127E+02
DAV:   5    -0.594019903845E+03   -0.26239E+02   -0.26049E+02  3972   0.448E+01    0.120E+02
DAV:   6    -0.440726929414E+03    0.15329E+03   -0.87270E+02  3288   0.795E+01    0.133E+02
DAV:   7    -0.457616394081E+03   -0.16889E+02   -0.12760E+02  3732   0.355E+01    0.900E+01
DAV:   8    -0.475446163478E+03   -0.17830E+02   -0.33574E+01  3852   0.183E+01    0.279E+01
DAV:   9    -0.485739493784E+03   -0.10293E+02   -0.17183E+01  3408   0.119E+01    0.789E+00
DAV:  10    -0.488823965275E+03   -0.30845E+01   -0.61828E+00  4104   0.623E+00    0.671E+00
DAV:  11    -0.490066500675E+03   -0.12425E+01   -0.14949E+00  3924   0.276E+00    0.453E+00
DAV:  12    -0.491259698619E+03   -0.11932E+01   -0.13899E+00  3312   0.228E+00    0.237E+00
DAV:  13    -0.491521048408E+03   -0.26135E+00   -0.49145E-01  3900   0.141E+00    0.151E+00
DAV:  14    -0.491566122770E+03   -0.45074E-01   -0.95644E-02  3720   0.726E-01    0.817E-01
DAV:  15    -0.491576649391E+03   -0.10527E-01   -0.34771E-02  4032   0.390E-01    0.533E-01
DAV:  16    -0.491578623846E+03   -0.19745E-02   -0.53641E-03  3936   0.190E-01    0.249E-01
DAV:  17    -0.491579007685E+03   -0.38384E-03   -0.13568E-03  3876   0.106E-01    0.160E-01
DAV:  18    -0.491579109780E+03   -0.10210E-03   -0.36353E-04  3936   0.550E-02    0.669E-02
DAV:  19    -0.491579122594E+03   -0.12814E-04   -0.51973E-05  2580   0.225E-02    0.415E-02
DAV:  20    -0.491579123812E+03   -0.12177E-05   -0.10443E-05  1728   0.178E-02
   1 F= -.49157912E+03 E0= -.49157912E+03  d E =-.491579E+03  mag=     0.0016
       N       E                     dE             d eps       ncg     rms          rms(c)
DAV:   1    -0.480669370377E+03    0.10910E+02   -0.56923E+02  2400   0.758E+01    0.159E+01
DAV:   2    -0.491524508291E+03   -0.10855E+02   -0.11951E+02  3372   0.307E+01    0.102E+01
DAV:   3    -0.492009305728E+03   -0.48480E+00   -0.88882E+00  3756   0.789E+00    0.642E+00
DAV:   4    -0.492026955726E+03   -0.17650E-01   -0.16207E+00  3996   0.350E+00    0.578E+00
DAV:   5    -0.491989036242E+03    0.37919E-01   -0.26473E-01  3852   0.151E+00    0.336E+00
DAV:   6    -0.491952453216E+03    0.36583E-01   -0.89398E-02  3444   0.142E+00    0.128E+00
DAV:   7    -0.491956379451E+03   -0.39262E-02   -0.92769E-02  3972   0.827E-01    0.943E-01
DAV:   8    -0.491958192034E+03   -0.18126E-02   -0.20474E-02  4308   0.384E-01    0.784E-01
DAV:   9    -0.491958134781E+03    0.57252E-04   -0.26700E-03  4200   0.143E-01    0.673E-01
DAV:  10    -0.491958058080E+03    0.76701E-04   -0.22881E-03  3708   0.160E-01    0.200E-01
DAV:  11    -0.491958020202E+03    0.37879E-04   -0.65822E-04  3840   0.102E-01    0.136E-01
DAV:  12    -0.491958025158E+03   -0.49564E-05   -0.17096E-04  3780   0.429E-02    0.128E-01
DAV:  13    -0.491958029017E+03   -0.38594E-05   -0.28095E-05  2292   0.203E-02
   2 F= -.49195803E+03 E0= -.49195803E+03  d E =-.378905E+00  mag=     0.0000
       N       E                     dE             d eps       ncg     rms          rms(c)
DAV:   1    -0.490608187151E+03    0.13498E+01   -0.11219E+02  2304   0.338E+01    0.564E+00
DAV:   2    -0.492586371324E+03   -0.19782E+01   -0.22292E+01  3276   0.132E+01    0.622E+00
DAV:   3    -0.492653280526E+03   -0.66909E-01   -0.11799E+00  3792   0.345E+00    0.353E+00
DAV:   4    -0.492637199129E+03    0.16081E-01   -0.14619E-01  3864   0.147E+00    0.355E+00
DAV:   5    -0.492624294628E+03    0.12905E-01   -0.54733E-02  3780   0.776E-01    0.214E+00
DAV:   6    -0.492618652196E+03    0.56424E-02   -0.28499E-02  3828   0.862E-01    0.104E+00
DAV:   7    -0.492619905422E+03   -0.12532E-02   -0.23994E-02  3684   0.458E-01    0.800E-01
DAV:   8    -0.492620092183E+03   -0.18676E-03   -0.36134E-03  4524   0.177E-01    0.690E-01
DAV:   9    -0.492619794026E+03    0.29816E-03   -0.64072E-04  3960   0.863E-02    0.567E-01
DAV:  10    -0.492619606491E+03    0.18753E-03   -0.37440E-04  3972   0.682E-02    0.377E-01
DAV:  11    -0.492619513921E+03    0.92571E-04   -0.53248E-04  3660   0.752E-02    0.130E-01
DAV:  12    -0.492619527129E+03   -0.13208E-04   -0.19040E-04  4152   0.437E-02    0.111E-01
DAV:  13    -0.492619525079E+03    0.20499E-05   -0.10456E-05  1872   0.141E-02
   3 F= -.49261953E+03 E0= -.49261953E+03  d E =-.104040E+01  mag=     0.0000
       N       E                     dE             d eps       ncg     rms          rms(c)
DAV:   1    -0.491620395869E+03    0.99913E+00   -0.14701E+02  2304   0.300E+01    0.653E+00
DAV:   2    -0.492968320884E+03   -0.13479E+01   -0.15052E+01  3672   0.107E+01    0.511E+00
DAV:   3    -0.493101364055E+03   -0.13304E+00   -0.18037E+00  3900   0.272E+00    0.277E+00
DAV:   4    -0.493118253413E+03   -0.16889E-01   -0.33241E-01  4164   0.128E+00    0.232E+00
DAV:   5    -0.493110201547E+03    0.80519E-02   -0.58751E-02  3504   0.658E-01    0.118E+00
DAV:   6    -0.493107567112E+03    0.26344E-02   -0.15487E-02  3768   0.487E-01    0.429E-01
DAV:   7    -0.493108350752E+03   -0.78364E-03   -0.81091E-03  3720   0.259E-01    0.388E-01
DAV:   8    -0.493108441605E+03   -0.90853E-04   -0.15070E-03  4536   0.123E-01    0.290E-01
DAV:   9    -0.493108373815E+03    0.67790E-04   -0.38714E-04  3768   0.675E-02    0.148E-01
DAV:  10    -0.493108368514E+03    0.53009E-05   -0.23754E-04  3612   0.589E-02    0.741E-02
DAV:  11    -0.493108367112E+03    0.14025E-05   -0.76901E-05  3048   0.301E-02
   4 F= -.49310837E+03 E0= -.49310837E+03  d E =-.488842E+00  mag=     0.0000
       N       E                     dE             d eps       ncg     rms          rms(c)
DAV:   1    -0.493000814139E+03    0.10755E+00   -0.16714E+01  2400   0.102E+01    0.207E+00
DAV:   2    -0.493135436499E+03   -0.13462E+00   -0.14772E+00  3708   0.379E+00    0.162E+00
DAV:   3    -0.493140603681E+03   -0.51672E-02   -0.10247E-01  3936   0.862E-01    0.889E-01
DAV:   4    -0.493140385615E+03    0.21807E-03   -0.15579E-02  3888   0.398E-01    0.766E-01
DAV:   5    -0.493139387491E+03    0.99812E-03   -0.42398E-03  3612   0.228E-01    0.351E-01
DAV:   6    -0.493139225212E+03    0.16228E-03   -0.17635E-03  3936   0.153E-01    0.123E-01
DAV:   7    -0.493139284001E+03   -0.58788E-04   -0.71048E-04  3372   0.869E-02    0.120E-01
DAV:   8    -0.493139293853E+03   -0.98521E-05   -0.13853E-04  4308   0.362E-02    0.959E-02
DAV:   9    -0.493139284156E+03    0.96971E-05   -0.48784E-05  2640   0.266E-02
   5 F= -.49313928E+03 E0= -.49313928E+03  d E =-.519759E+00  mag=    -0.0000
       N       E                     dE             d eps       ncg     rms          rms(c)
DAV:   1    -0.491707716264E+03    0.14316E+01   -0.14062E+02  2304   0.319E+01    0.538E+00
DAV:   2    -0.493237830196E+03   -0.15301E+01   -0.16682E+01  3600   0.116E+01    0.403E+00
DAV:   3    -0.493386636134E+03   -0.14881E+00   -0.18159E+00  4104   0.261E+00    0.243E+00
DAV:   4    -0.493401666402E+03   -0.15030E-01   -0.31981E-01  4020   0.123E+00    0.213E+00
DAV:   5    -0.493396883377E+03    0.47830E-02   -0.51810E-02  3672   0.593E-01    0.131E+00
DAV:   6    -0.493391334948E+03    0.55484E-02   -0.15161E-02  3492   0.510E-01    0.490E-01
DAV:   7    -0.493392157409E+03   -0.82246E-03   -0.95428E-03  3840   0.293E-01    0.324E-01
DAV:   8    -0.493392350764E+03   -0.19335E-03   -0.20227E-03  4392   0.125E-01    0.282E-01
DAV:   9    -0.493392250369E+03    0.10040E-03   -0.34913E-04  3972   0.577E-02    0.195E-01
DAV:  10    -0.493392225404E+03    0.24965E-04   -0.22362E-04  3732   0.455E-02    0.112E-01
DAV:  11    -0.493392229165E+03   -0.37613E-05   -0.13870E-04  3420   0.385E-02    0.497E-02
DAV:  12    -0.493392227100E+03    0.20647E-05   -0.32775E-05  2268   0.222E-02
   6 F= -.49339223E+03 E0= -.49339223E+03  d E =-.252943E+00  mag=    -0.0000
       N       E                     dE             d eps       ncg     rms          rms(c)
DAV:   1    -0.493390192760E+03    0.20364E-02   -0.26193E-01  2400   0.137E+00    0.200E-01
DAV:   2    -0.493392593839E+03   -0.24011E-02   -0.25424E-02  3600   0.502E-01    0.164E-01
DAV:   3    -0.493392641029E+03   -0.47190E-04   -0.10014E-03  4212   0.101E-01    0.106E-01
DAV:   4    -0.493392628847E+03    0.12183E-04   -0.14052E-04  3684   0.459E-02    0.975E-02
DAV:   5    -0.493392617862E+03    0.10984E-04   -0.32295E-05  2460   0.248E-02    0.595E-02
DAV:   6    -0.493392611842E+03    0.60208E-05   -0.48386E-05  2856   0.289E-02
   7 F= -.49339261E+03 E0= -.49339261E+03  d E =-.253328E+00  mag=    -0.0000
       N       E                     dE             d eps       ncg     rms          rms(c)
DAV:   1    -0.492860398512E+03    0.53222E+00   -0.57288E+01  2304   0.213E+01    0.366E+00
DAV:   2    -0.493467816489E+03   -0.60742E+00   -0.65138E+00  3648   0.780E+00    0.239E+00
DAV:   3    -0.493498190284E+03   -0.30374E-01   -0.44425E-01  4224   0.164E+00    0.152E+00
DAV:   4    -0.493499375840E+03   -0.11856E-02   -0.82015E-02  3984   0.759E-01    0.128E+00
DAV:   5    -0.493497811123E+03    0.15647E-02   -0.18724E-02  3720   0.384E-01    0.734E-01
DAV:   6    -0.493496192607E+03    0.16185E-02   -0.60953E-03  3576   0.332E-01    0.240E-01
DAV:   7    -0.493496535873E+03   -0.34327E-03   -0.38913E-03  3588   0.190E-01    0.201E-01
DAV:   8    -0.493496601775E+03   -0.65903E-04   -0.71534E-04  4464   0.786E-02    0.174E-01
DAV:   9    -0.493496565440E+03    0.36335E-04   -0.16611E-04  3780   0.441E-02    0.118E-01
DAV:  10    -0.493496562227E+03    0.32129E-05   -0.62155E-05  2880   0.276E-02
   8 F= -.49349656E+03 E0= -.49349656E+03  d E =-.103950E+00  mag=     0.0000
       N       E                     dE             d eps       ncg     rms          rms(c)
DAV:   1    -0.493492750424E+03    0.38150E-02   -0.44424E-01  2400   0.186E+00    0.317E-01
DAV:   2    -0.493497240885E+03   -0.44905E-02   -0.47346E-02  3648   0.695E-01    0.208E-01
DAV:   3    -0.493497310042E+03   -0.69157E-04   -0.17867E-03  4164   0.141E-01    0.135E-01
DAV:   4    -0.493497283191E+03    0.26850E-04   -0.25710E-04  3804   0.630E-02    0.120E-01
DAV:   5    -0.493497265779E+03    0.17413E-04   -0.74253E-05  3168   0.334E-02    0.670E-02
DAV:   6    -0.493497256490E+03    0.92886E-05   -0.47072E-05  2664   0.302E-02
   9 F= -.49349726E+03 E0= -.49349726E+03  d E =-.104645E+00  mag=     0.0000
       N       E                     dE             d eps       ncg     rms          rms(c)
DAV:   1    -0.493233240106E+03    0.26403E+00   -0.29316E+01  2304   0.153E+01    0.282E+00
DAV:   2    -0.493536196473E+03   -0.30296E+00   -0.32502E+00  3624   0.589E+00    0.170E+00
DAV:   3    -0.493547793129E+03   -0.11597E-01   -0.19518E-01  4032   0.128E+00    0.104E+00
DAV:   4    -0.493546630441E+03    0.11627E-02   -0.27044E-02  4008   0.595E-01    0.933E-01
DAV:   5    -0.493545575259E+03    0.10552E-02   -0.61347E-03  3888   0.259E-01    0.556E-01
DAV:   6    -0.493544770400E+03    0.80486E-03   -0.33276E-03  3312   0.238E-01    0.169E-01
DAV:   7    -0.493544932551E+03   -0.16215E-03   -0.19449E-03  3672   0.138E-01    0.142E-01
DAV:   8    -0.493544962307E+03   -0.29756E-04   -0.36523E-04  4452   0.539E-02    0.123E-01
DAV:   9    -0.493544940281E+03    0.22026E-04   -0.95347E-05  3192   0.327E-02    0.781E-02
DAV:  10    -0.493544938687E+03    0.15938E-05   -0.25483E-05  2112   0.203E-02
  10 F= -.49354494E+03 E0= -.49354494E+03  d E =-.476822E-01  mag=     0.0000
       N       E                     dE             d eps       ncg     rms          rms(c)
DAV:   1    -0.493544874102E+03    0.66179E-04   -0.66403E-03  2532   0.231E-01    0.523E-02
DAV:   2    -0.493544941088E+03   -0.66986E-04   -0.74070E-04  3660   0.900E-02    0.362E-02
DAV:   3    -0.493544941604E+03   -0.51683E-06   -0.22335E-05  2364   0.182E-02
  11 F= -.49354494E+03 E0= -.49354494E+03  d E =-.476851E-01  mag=     0.0000
       N       E                     dE             d eps       ncg     rms          rms(c)
DAV:   1    -0.493391876575E+03    0.15306E+00   -0.16063E+01  2304   0.116E+01    0.195E+00
DAV:   2    -0.493575638080E+03   -0.18376E+00   -0.19354E+00  3720   0.464E+00    0.124E+00
DAV:   3    -0.493579872467E+03   -0.42344E-02   -0.83136E-02  4104   0.881E-01    0.805E-01
DAV:   4    -0.493578873730E+03    0.99874E-03   -0.12944E-02  4356   0.401E-01    0.663E-01
DAV:   5    -0.493578202775E+03    0.67096E-03   -0.28535E-03  3624   0.182E-01    0.378E-01
DAV:   6    -0.493577894368E+03    0.30841E-03   -0.17144E-03  3504   0.150E-01    0.129E-01
DAV:   7    -0.493577970930E+03   -0.76562E-04   -0.90941E-04  3636   0.895E-02    0.106E-01
DAV:   8    -0.493577981209E+03   -0.10279E-04   -0.15715E-04  4212   0.368E-02    0.876E-02
DAV:   9    -0.493577967900E+03    0.13310E-04   -0.47535E-05  2520   0.261E-02    0.472E-02
DAV:  10    -0.493577967544E+03    0.35560E-06   -0.14053E-05  1680   0.173E-02
  12 F= -.49357797E+03 E0= -.49357797E+03  d E =-.330259E-01  mag=     0.0000
       N       E                     dE             d eps       ncg     rms          rms(c)
DAV:   1    -0.493559448983E+03    0.18519E-01   -0.18366E+00  2304   0.394E+00    0.654E-01
DAV:   2    -0.493580416660E+03   -0.20968E-01   -0.22013E-01  3780   0.158E+00    0.418E-01
DAV:   3    -0.493580657325E+03   -0.24067E-03   -0.70493E-03  4068   0.271E-01    0.275E-01
DAV:   4    -0.493580510475E+03    0.14685E-03   -0.12083E-03  4164   0.127E-01    0.227E-01
DAV:   5    -0.493580436840E+03    0.73635E-04   -0.33360E-04  3552   0.624E-02    0.127E-01
DAV:   6    -0.493580405303E+03    0.31537E-04   -0.20192E-04  3636   0.507E-02    0.433E-02
DAV:   7    -0.493580413350E+03   -0.80469E-05   -0.97402E-05  3276   0.310E-02
  13 F= -.49358041E+03 E0= -.49358041E+03  d E =-.354717E-01  mag=    -0.0000
       N       E                     dE             d eps       ncg     rms          rms(c)
DAV:   1    -0.493460753494E+03    0.11965E+00   -0.14282E+01  2304   0.108E+01    0.196E+00
DAV:   2    -0.493602055866E+03   -0.14130E+00   -0.15008E+00  3720   0.421E+00    0.111E+00
DAV:   3    -0.493604223724E+03   -0.21679E-02   -0.57867E-02  4068   0.775E-01    0.750E-01
DAV:   4    -0.493603241341E+03    0.98238E-03   -0.88773E-03  4344   0.339E-01    0.603E-01
DAV:   5    -0.493602665660E+03    0.57568E-03   -0.21690E-03  3576   0.151E-01    0.360E-01
DAV:   6    -0.493602321756E+03    0.34390E-03   -0.15657E-03  3348   0.150E-01    0.127E-01
DAV:   7    -0.493602403169E+03   -0.81413E-04   -0.96226E-04  3636   0.895E-02    0.963E-02
DAV:   8    -0.493602411342E+03   -0.81728E-05   -0.15758E-04  4284   0.372E-02    0.828E-02
DAV:   9    -0.493602400520E+03    0.10821E-04   -0.20594E-05  1848   0.191E-02    0.559E-02
DAV:  10    -0.493602397790E+03    0.27306E-05   -0.20193E-05  1692   0.174E-02
  14 F= -.49360240E+03 E0= -.49360240E+03  d E =-.219844E-01  mag=    -0.0000
       N       E                     dE             d eps       ncg     rms          rms(c)
DAV:   1    -0.493599672248E+03    0.27283E-02   -0.32893E-01  2400   0.163E+00    0.295E-01
DAV:   2    -0.493602951618E+03   -0.32794E-02   -0.34669E-02  3696   0.642E-01    0.171E-01
DAV:   3    -0.493602987859E+03   -0.36241E-04   -0.12040E-03  3960   0.118E-01    0.119E-01
DAV:   4    -0.493602962011E+03    0.25848E-04   -0.19054E-04  4308   0.516E-02    0.971E-02
DAV:   5    -0.493602946636E+03    0.15375E-04   -0.45277E-05  2868   0.236E-02    0.568E-02
DAV:   6    -0.493602939288E+03    0.73479E-05   -0.40769E-05  2532   0.237E-02
  15 F= -.49360294E+03 E0= -.49360294E+03  d E =-.225259E-01  mag=    -0.0000
       N       E                     dE             d eps       ncg     rms          rms(c)
DAV:   1    -0.493515339031E+03    0.87608E-01   -0.11016E+01  2304   0.933E+00    0.185E+00
DAV:   2    -0.493617282081E+03   -0.10194E+00   -0.10765E+00  3672   0.350E+00    0.105E+00
DAV:   3    -0.493618784906E+03   -0.15028E-02   -0.42209E-02  3960   0.666E-01    0.676E-01
DAV:   4    -0.493618025779E+03    0.75913E-03   -0.69957E-03  4428   0.314E-01    0.545E-01
DAV:   5    -0.493617481586E+03    0.54419E-03   -0.19079E-03  3504   0.146E-01    0.302E-01
DAV:   6    -0.493617326717E+03    0.15487E-03   -0.11948E-03  3768   0.115E-01    0.109E-01
DAV:   7    -0.493617361744E+03   -0.35027E-04   -0.54508E-04  3780   0.715E-02    0.941E-02
DAV:   8    -0.493617364764E+03   -0.30204E-05   -0.74356E-05  3408   0.282E-02
  16 F= -.49361736E+03 E0= -.49361736E+03  d E =-.144255E-01  mag=     0.0000
       N       E                     dE             d eps       ncg     rms          rms(c)
DAV:   1    -0.493616727830E+03    0.63391E-03   -0.78971E-02  2400   0.792E-01    0.189E-01
DAV:   2    -0.493617492303E+03   -0.76447E-03   -0.80633E-03  3684   0.303E-01    0.859E-02
DAV:   3    -0.493617502528E+03   -0.10225E-04   -0.29445E-04  3924   0.574E-02    0.520E-02
DAV:   4    -0.493617496159E+03    0.63686E-05   -0.33704E-05  2676   0.267E-02
  17 F= -.49361750E+03 E0= -.49361750E+03  d E =-.145569E-01  mag=    -0.0000
       N       E                     dE             d eps       ncg     rms          rms(c)
DAV:   1    -0.493559552963E+03    0.57950E-01   -0.70002E+00  2304   0.749E+00    0.135E+00
DAV:   2    -0.493627174537E+03   -0.67622E-01   -0.70682E-01  3600   0.275E+00    0.765E-01
DAV:   3    -0.493628380684E+03   -0.12061E-02   -0.27311E-02  4068   0.525E-01    0.521E-01
DAV:   4    -0.493627839732E+03    0.54095E-03   -0.38604E-03  4380   0.226E-01    0.406E-01
DAV:   5    -0.493627600707E+03    0.23902E-03   -0.96734E-04  3828   0.102E-01    0.245E-01
DAV:   6    -0.493627434886E+03    0.16582E-03   -0.69674E-04  3264   0.991E-02    0.799E-02
DAV:   7    -0.493627465132E+03   -0.30246E-04   -0.37605E-04  3780   0.583E-02    0.629E-02
DAV:   8    -0.493627465461E+03   -0.32939E-06   -0.37380E-05  2544   0.225E-02
  18 F= -.49362747E+03 E0= -.49362747E+03  d E =-.996930E-02  mag=     0.0000
       N       E                     dE             d eps       ncg     rms          rms(c)
DAV:   1    -0.493621417950E+03    0.60472E-02   -0.69888E-01  2400   0.237E+00    0.447E-01
DAV:   2    -0.493628210553E+03   -0.67926E-02   -0.70926E-02  3648   0.864E-01    0.237E-01
DAV:   3    -0.493628320550E+03   -0.11000E-03   -0.25912E-03  4020   0.164E-01    0.159E-01
DAV:   4    -0.493628268383E+03    0.52167E-04   -0.38524E-04  4320   0.706E-02    0.125E-01
DAV:   5    -0.493628249913E+03    0.18470E-04   -0.86473E-05  3348   0.316E-02    0.781E-02
DAV:   6    -0.493628232570E+03    0.17343E-04   -0.73106E-05  2784   0.320E-02    0.252E-02
DAV:   7    -0.493628234818E+03   -0.22485E-05   -0.26982E-05  1968   0.196E-02
  19 F= -.49362823E+03 E0= -.49362823E+03  d E =-.107387E-01  mag=    -0.0000
       N       E                     dE             d eps       ncg     rms          rms(c)
DAV:   1    -0.493578649138E+03    0.49583E-01   -0.64943E+00  2304   0.700E+00    0.126E+00
DAV:   2    -0.493636107128E+03   -0.57458E-01   -0.60332E-01  3696   0.258E+00    0.706E-01
DAV:   3    -0.493637066381E+03   -0.95925E-03   -0.23310E-02  4044   0.478E-01    0.477E-01
DAV:   4    -0.493636637579E+03    0.42880E-03   -0.33890E-03  4320   0.208E-01    0.374E-01
DAV:   5    -0.493636422146E+03    0.21543E-03   -0.85818E-04  3828   0.963E-02    0.227E-01
DAV:   6    -0.493636275036E+03    0.14711E-03   -0.57084E-04  3360   0.939E-02    0.719E-02
DAV:   7    -0.493636301243E+03   -0.26207E-04   -0.34419E-04  3708   0.546E-02    0.549E-02
DAV:   8    -0.493636302127E+03   -0.88428E-06   -0.28522E-05  2208   0.222E-02
  20 F= -.49363630E+03 E0= -.49363630E+03  d E =-.806731E-02  mag=     0.0000
       N       E                     dE             d eps       ncg     rms          rms(c)
DAV:   1    -0.493632608902E+03    0.36923E-02   -0.47503E-01  2400   0.190E+00    0.352E-01
DAV:   2    -0.493636778255E+03   -0.41694E-02   -0.43742E-02  3684   0.709E-01    0.188E-01
DAV:   3    -0.493636841886E+03   -0.63631E-04   -0.16221E-03  3972   0.131E-01    0.127E-01
DAV:   4    -0.493636812659E+03    0.29227E-04   -0.25219E-04  4320   0.576E-02    0.101E-01
DAV:   5    -0.493636798504E+03    0.14154E-04   -0.53913E-05  3000   0.258E-02    0.632E-02
DAV:   6    -0.493636786843E+03    0.11661E-04   -0.49627E-05  2616   0.269E-02    0.199E-02
DAV:   7    -0.493636788204E+03   -0.13607E-05   -0.16864E-05  1740   0.178E-02
  21 F= -.49363679E+03 E0= -.49363679E+03  d E =-.855339E-02  mag=    -0.0000
       N       E                     dE             d eps       ncg     rms          rms(c)
DAV:   1    -0.493593003555E+03    0.43783E-01   -0.62400E+00  2304   0.669E+00    0.125E+00
DAV:   2    -0.493643047024E+03   -0.50043E-01   -0.52293E-01  3708   0.244E+00    0.667E-01
DAV:   3    -0.493643901824E+03   -0.85480E-03   -0.20378E-02  3984   0.441E-01    0.439E-01
DAV:   4    -0.493643580942E+03    0.32088E-03   -0.31519E-03  4452   0.198E-01    0.340E-01
DAV:   5    -0.493643362382E+03    0.21856E-03   -0.81467E-04  3588   0.928E-02    0.185E-01
DAV:   6    -0.493643297110E+03    0.65272E-04   -0.44565E-04  3672   0.760E-02    0.636E-02
DAV:   7    -0.493643314034E+03   -0.16924E-04   -0.24105E-04  3720   0.465E-02    0.558E-02
DAV:   8    -0.493643314015E+03    0.18917E-07   -0.14895E-05  1848   0.188E-02
  22 F= -.49364331E+03 E0= -.49364331E+03  d E =-.652581E-02  mag=    -0.0000
       N       E                     dE             d eps       ncg     rms          rms(c)
DAV:   1    -0.493640195884E+03    0.31181E-02   -0.42855E-01  2376   0.175E+00    0.338E-01
DAV:   2    -0.493643672202E+03   -0.34763E-02   -0.36207E-02  3672   0.645E-01    0.174E-01
DAV:   3    -0.493643725430E+03   -0.53228E-04   -0.13462E-03  3960   0.116E-01    0.114E-01
DAV:   4    -0.493643700186E+03    0.25244E-04   -0.20689E-04  4248   0.516E-02    0.892E-02
DAV:   5    -0.493643687476E+03    0.12711E-04   -0.50303E-05  2892   0.245E-02    0.499E-02
DAV:   6    -0.493643681987E+03    0.54885E-05   -0.31537E-05  1992   0.218E-02
  23 F= -.49364368E+03 E0= -.49364368E+03  d E =-.689378E-02  mag=    -0.0000
       N       E                     dE             d eps       ncg     rms          rms(c)
DAV:   1    -0.493607813547E+03    0.35874E-01   -0.58211E+00  2304   0.621E+00    0.117E+00
DAV:   2    -0.493648973108E+03   -0.41160E-01   -0.43286E-01  3708   0.222E+00    0.634E-01
DAV:   3    -0.493649722335E+03   -0.74923E-03   -0.18058E-02  4020   0.418E-01    0.403E-01
DAV:   4    -0.493649456213E+03    0.26612E-03   -0.27739E-03  4428   0.186E-01    0.318E-01
DAV:   5    -0.493649257095E+03    0.19912E-03   -0.71819E-04  3756   0.870E-02    0.180E-01
DAV:   6    -0.493649183907E+03    0.73188E-04   -0.41985E-04  3636   0.736E-02    0.641E-02
DAV:   7    -0.493649200438E+03   -0.16530E-04   -0.23344E-04  3744   0.450E-02    0.512E-02
DAV:   8    -0.493649200383E+03    0.54788E-07   -0.14296E-05  1776   0.187E-02
  24 F= -.49364920E+03 E0= -.49364920E+03  d E =-.551840E-02  mag=    -0.0000
       N       E                     dE             d eps       ncg     rms          rms(c)
DAV:   1    -0.493644607252E+03    0.45932E-02   -0.71185E-01  2328   0.217E+00    0.417E-01
DAV:   2    -0.493649673429E+03   -0.50662E-02   -0.53095E-02  3744   0.780E-01    0.220E-01
DAV:   3    -0.493649737537E+03   -0.64109E-04   -0.19776E-03  3936   0.145E-01    0.140E-01
DAV:   4    -0.493649703999E+03    0.33538E-04   -0.33308E-04  4356   0.661E-02    0.111E-01
DAV:   5    -0.493649680347E+03    0.23653E-04   -0.78874E-05  3132   0.307E-02    0.637E-02
DAV:   6    -0.493649670891E+03    0.94551E-05   -0.58002E-05  2880   0.267E-02
  25 F= -.49364967E+03 E0= -.49364967E+03  d E =-.598890E-02  mag=    -0.0000
       N       E                     dE             d eps       ncg     rms          rms(c)
DAV:   1    -0.493609549467E+03    0.40131E-01   -0.65462E+00  2304   0.639E+00    0.110E+00
DAV:   2    -0.493654188215E+03   -0.44639E-01   -0.47117E-01  3672   0.229E+00    0.575E-01
DAV:   3    -0.493655213184E+03   -0.10250E-02   -0.19916E-02  3984   0.414E-01    0.402E-01
DAV:   4    -0.493654998811E+03    0.21437E-03   -0.31364E-03  4488   0.176E-01    0.307E-01
DAV:   5    -0.493654870646E+03    0.12817E-03   -0.65779E-04  3936   0.747E-02    0.191E-01
DAV:   6    -0.493654760804E+03    0.10984E-03   -0.39357E-04  3216   0.781E-02    0.672E-02
DAV:   7    -0.493654781982E+03   -0.21177E-04   -0.25952E-04  3948   0.439E-02    0.418E-02
DAV:   8    -0.493654781138E+03    0.84348E-06   -0.19720E-05  1932   0.199E-02
  26 F= -.49365478E+03 E0= -.49365478E+03  d E =-.511025E-02  mag=    -0.0000
       N       E                     dE             d eps       ncg     rms          rms(c)
DAV:   1    -0.493652196288E+03    0.25857E-02   -0.42978E-01  2376   0.164E+00    0.289E-01
DAV:   2    -0.493655133147E+03   -0.29369E-02   -0.30898E-02  3720   0.591E-01    0.146E-01
DAV:   3    -0.493655183022E+03   -0.49876E-04   -0.11334E-03  4056   0.104E-01    0.104E-01
DAV:   4    -0.493655162179E+03    0.20843E-04   -0.16204E-04  4056   0.422E-02    0.805E-02
DAV:   5    -0.493655156140E+03    0.60388E-05   -0.26180E-05  2160   0.199E-02
  27 F= -.49365516E+03 E0= -.49365516E+03  d E =-.548525E-02  mag=    -0.0000
       N       E                     dE             d eps       ncg     rms          rms(c)
DAV:   1    -0.493620738599E+03    0.34424E-01   -0.69806E+00  2304   0.615E+00    0.111E+00
DAV:   2    -0.493659881487E+03   -0.39143E-01   -0.41192E-01  3600   0.215E+00    0.589E-01
DAV:   3    -0.493661068311E+03   -0.11868E-02   -0.20893E-02  4032   0.422E-01    0.384E-01
DAV:   4    -0.493660923667E+03    0.14464E-03   -0.32307E-03  4380   0.186E-01    0.293E-01
DAV:   5    -0.493660715573E+03    0.20809E-03   -0.84294E-04  3396   0.961E-02    0.139E-01
DAV:   6    -0.493660714998E+03    0.57438E-06   -0.44596E-04  4032   0.611E-02    0.587E-02
DAV:   7    -0.493660723318E+03   -0.83191E-05   -0.15058E-04  3660   0.352E-02    0.545E-02
DAV:   8    -0.493660723429E+03   -0.11169E-06   -0.11238E-05  1824   0.159E-02
  28 F= -.49366072E+03 E0= -.49366072E+03  d E =-.556729E-02  mag=     0.0000
       N       E                     dE             d eps       ncg     rms          rms(c)
DAV:   1    -0.493650052642E+03    0.10671E-01   -0.20528E+00  2304   0.334E+00    0.610E-01
DAV:   2    -0.493661443952E+03   -0.11391E-01   -0.11933E-01  3612   0.117E+00    0.318E-01
DAV:   3    -0.493661683266E+03   -0.23931E-03   -0.51153E-03  4032   0.227E-01    0.209E-01
DAV:   4    -0.493661623872E+03    0.59394E-04   -0.81246E-04  4344   0.976E-02    0.159E-01
DAV:   5    -0.493661566530E+03    0.57342E-04   -0.24042E-04  3444   0.528E-02    0.738E-02
DAV:   6    -0.493661565312E+03    0.12174E-05   -0.12091E-04  3720   0.323E-02    0.310E-02
DAV:   7    -0.493661566826E+03   -0.15140E-05   -0.31620E-05  2208   0.204E-02
  29 F= -.49366157E+03 E0= -.49366157E+03  d E =-.641069E-02  mag=     0.0000
       N       E                     dE             d eps       ncg     rms          rms(c)
DAV:   1    -0.493647183200E+03    0.14382E-01   -0.38146E+00  2304   0.423E+00    0.752E-01
DAV:   2    -0.493665208298E+03   -0.18025E-01   -0.18934E-01  3720   0.143E+00    0.376E-01
DAV:   3    -0.493665743238E+03   -0.53494E-03   -0.90099E-03  4116   0.268E-01    0.244E-01
DAV:   4    -0.493665672721E+03    0.70517E-04   -0.13107E-03  4176   0.115E-01    0.189E-01
DAV:   5    -0.493665622135E+03    0.50585E-04   -0.33111E-04  3852   0.566E-02    0.106E-01
DAV:   6    -0.493665592729E+03    0.29406E-04   -0.14638E-04  3348   0.410E-02    0.365E-02
DAV:   7    -0.493665599077E+03   -0.63479E-05   -0.69902E-05  3048   0.244E-02
  30 F= -.49366560E+03 E0= -.49366560E+03  d E =-.403225E-02  mag=    -0.0000
       N       E                     dE             d eps       ncg     rms          rms(c)
DAV:   1    -0.493645551675E+03    0.20041E-01   -0.46149E+00  2304   0.466E+00    0.829E-01
DAV:   2    -0.493667406384E+03   -0.21855E-01   -0.22985E-01  3660   0.157E+00    0.415E-01
DAV:   3    -0.493668137775E+03   -0.73139E-03   -0.11616E-02  4056   0.302E-01    0.268E-01
DAV:   4    -0.493668060234E+03    0.77541E-04   -0.16821E-03  4188   0.133E-01    0.211E-01
DAV:   5    -0.493668004238E+03    0.55996E-04   -0.39971E-04  3852   0.616E-02    0.121E-01
DAV:   6    -0.493667965933E+03    0.38305E-04   -0.19238E-04  3408   0.468E-02    0.407E-02
DAV:   7    -0.493667973923E+03   -0.79903E-05   -0.89706E-05  3408   0.271E-02
  31 F= -.49366797E+03 E0= -.49366797E+03  d E =-.640710E-02  mag=    -0.0000
       N       E                     dE             d eps       ncg     rms          rms(c)
DAV:   1    -0.493567205957E+03    0.10076E+00   -0.18267E+01  2304   0.931E+00    0.167E+00
DAV:   2    -0.493660255016E+03   -0.93049E-01   -0.98625E-01  3696   0.313E+00    0.837E-01
DAV:   3    -0.493665639326E+03   -0.53843E-02   -0.70911E-02  4056   0.611E-01    0.548E-01
DAV:   4    -0.493665750809E+03   -0.11148E-03   -0.11557E-02  4176   0.274E-01    0.431E-01
DAV:   5    -0.493665541479E+03    0.20933E-03   -0.24247E-03  3912   0.125E-01    0.253E-01
DAV:   6    -0.493665317544E+03    0.22394E-03   -0.83160E-04  3432   0.940E-02    0.853E-02
DAV:   7    -0.493665355853E+03   -0.38309E-04   -0.40864E-04  4020   0.536E-02    0.529E-02
DAV:   8    -0.493665359650E+03   -0.37969E-05   -0.53380E-05  2904   0.244E-02
  32 F= -.49366536E+03 E0= -.49366536E+03  d E =-.379282E-02  mag=     0.0000
       N       E                     dE             d eps       ncg     rms          rms(c)
DAV:   1    -0.493611191369E+03    0.54164E-01   -0.11096E+01  2304   0.724E+00    0.127E+00
DAV:   2    -0.493665949902E+03   -0.54759E-01   -0.57786E-01  3708   0.245E+00    0.668E-01
DAV:   3    -0.493668506107E+03   -0.25562E-02   -0.36465E-02  3960   0.473E-01    0.430E-01
DAV:   4    -0.493668504018E+03    0.20896E-05   -0.58653E-03  4236   0.206E-01    0.338E-01
DAV:   5    -0.493668341196E+03    0.16282E-03   -0.13132E-03  3732   0.977E-02    0.192E-01
DAV:   6    -0.493668253299E+03    0.87897E-04   -0.51109E-04  3492   0.715E-02    0.653E-02
DAV:   7    -0.493668275287E+03   -0.21988E-04   -0.23928E-04  3984   0.424E-02    0.471E-02
DAV:   8    -0.493668276162E+03   -0.87474E-06   -0.18781E-05  1980   0.187E-02
  33 F= -.49366828E+03 E0= -.49366828E+03  d E =-.670934E-02  mag=     0.0000
       N       E                     dE             d eps       ncg     rms          rms(c)
DAV:   1    -0.493645742991E+03    0.22532E-01   -0.59004E+00  2304   0.517E+00    0.905E-01
DAV:   2    -0.493672724698E+03   -0.26982E-01   -0.28250E-01  3624   0.169E+00    0.461E-01
DAV:   3    -0.493673685836E+03   -0.96114E-03   -0.15237E-02  4104   0.330E-01    0.310E-01
DAV:   4    -0.493673599159E+03    0.86678E-04   -0.24363E-03  4212   0.147E-01    0.231E-01
DAV:   5    -0.493673509823E+03    0.89336E-04   -0.58908E-04  3744   0.746E-02    0.118E-01
DAV:   6    -0.493673485221E+03    0.24602E-04   -0.24586E-04  3672   0.524E-02    0.407E-02
DAV:   7    -0.493673494828E+03   -0.96064E-05   -0.11792E-04  3492   0.326E-02    0.416E-02
DAV:   8    -0.493673495142E+03   -0.31466E-06   -0.94971E-06  1740   0.140E-02
  34 F= -.49367350E+03 E0= -.49367350E+03  d E =-.521898E-02  mag=     0.0000
       N       E                     dE             d eps       ncg     rms          rms(c)
DAV:   1    -0.493645951703E+03    0.27543E-01   -0.61260E+00  2304   0.527E+00    0.937E-01
DAV:   2    -0.493674305113E+03   -0.28353E-01   -0.29661E-01  3648   0.172E+00    0.465E-01
DAV:   3    -0.493675256954E+03   -0.95184E-03   -0.15429E-02  4128   0.326E-01    0.317E-01
DAV:   4    -0.493675153160E+03    0.10379E-03   -0.25043E-03  4200   0.147E-01    0.233E-01
DAV:   5    -0.493675072734E+03    0.80426E-04   -0.64936E-04  3816   0.757E-02    0.120E-01
DAV:   6    -0.493675043769E+03    0.28966E-04   -0.25659E-04  3600   0.541E-02    0.414E-02
DAV:   7    -0.493675054420E+03   -0.10651E-04   -0.12646E-04  3624   0.335E-02    0.421E-02
DAV:   8    -0.493675054827E+03   -0.40745E-06   -0.97604E-06  1692   0.146E-02
  35 F= -.49367505E+03 E0= -.49367505E+03  d E =-.677867E-02  mag=    -0.0000
       N       E                     dE             d eps       ncg     rms          rms(c)
DAV:   1    -0.493659670309E+03    0.15384E-01   -0.42652E+00  2304   0.430E+00    0.806E-01
DAV:   2    -0.493678367063E+03   -0.18697E-01   -0.19774E-01  3720   0.145E+00    0.427E-01
DAV:   3    -0.493678943635E+03   -0.57657E-03   -0.10391E-02  3912   0.296E-01    0.264E-01
DAV:   4    -0.493678877951E+03    0.65684E-04   -0.15795E-03  4080   0.129E-01    0.213E-01
DAV:   5    -0.493678807090E+03    0.70861E-04   -0.44695E-04  3912   0.691E-02    0.110E-01
DAV:   6    -0.493678789027E+03    0.18063E-04   -0.18395E-04  3684   0.444E-02    0.381E-02
DAV:   7    -0.493678794828E+03   -0.58009E-05   -0.80042E-05  3240   0.281E-02
  36 F= -.49367879E+03 E0= -.49367879E+03  d E =-.374000E-02  mag=     0.0000
       N       E                     dE             d eps       ncg     rms          rms(c)
DAV:   1    -0.493674320434E+03    0.44686E-02   -0.11190E+00  2304   0.220E+00    0.427E-01
DAV:   2    -0.493679158600E+03   -0.48382E-02   -0.51167E-02  3732   0.744E-01    0.215E-01
DAV:   3    -0.493679265408E+03   -0.10681E-03   -0.22433E-03  3840   0.150E-01    0.129E-01
DAV:   4    -0.493679249371E+03    0.16037E-04   -0.38192E-04  4020   0.677E-02    0.105E-01
DAV:   5    -0.493679234741E+03    0.14630E-04   -0.98347E-05  3408   0.358E-02    0.542E-02
DAV:   6    -0.493679230376E+03    0.43651E-05   -0.45097E-05  2532   0.230E-02
  37 F= -.49367923E+03 E0= -.49367923E+03  d E =-.417555E-02  mag=     0.0000
       N       E                     dE             d eps       ncg     rms          rms(c)
DAV:   1    -0.493671098985E+03    0.81358E-02   -0.13788E+00  2304   0.310E+00    0.537E-01
DAV:   2    -0.493682072216E+03   -0.10973E-01   -0.11479E-01  3624   0.111E+00    0.321E-01
DAV:   3    -0.493682240066E+03   -0.16785E-03   -0.42793E-03  3960   0.223E-01    0.203E-01
DAV:   4    -0.493682191146E+03    0.48920E-04   -0.70589E-04  4128   0.102E-01    0.168E-01
DAV:   5    -0.493682148527E+03    0.42620E-04   -0.19182E-04  3528   0.516E-02    0.896E-02
DAV:   6    -0.493682139643E+03    0.88840E-05   -0.10513E-04  3588   0.359E-02    0.289E-02
DAV:   7    -0.493682141842E+03   -0.21988E-05   -0.34945E-05  2412   0.242E-02
  38 F= -.49368214E+03 E0= -.49368214E+03  d E =-.291147E-02  mag=     0.0000
       N       E                     dE             d eps       ncg     rms          rms(c)
DAV:   1    -0.493679772159E+03    0.23675E-02   -0.36058E-01  2304   0.159E+00    0.287E-01
DAV:   2    -0.493682663870E+03   -0.28917E-02   -0.30237E-02  3636   0.571E-01    0.163E-01
DAV:   3    -0.493682709726E+03   -0.45856E-04   -0.11218E-03  3984   0.113E-01    0.101E-01
DAV:   4    -0.493682696184E+03    0.13542E-04   -0.17621E-04  3876   0.528E-02    0.853E-02
DAV:   5    -0.493682686705E+03    0.94792E-05   -0.42476E-05  2784   0.269E-02
  39 F= -.49368269E+03 E0= -.49368269E+03  d E =-.345633E-02  mag=     0.0000
       N       E                     dE             d eps       ncg     rms          rms(c)
DAV:   1    -0.493673533347E+03    0.91628E-02   -0.13789E+00  2304   0.324E+00    0.590E-01
DAV:   2    -0.493685625949E+03   -0.12093E-01   -0.12777E-01  3840   0.123E+00    0.356E-01
DAV:   3    -0.493685775099E+03   -0.14915E-03   -0.48100E-03  3816   0.240E-01    0.224E-01
DAV:   4    -0.493685693558E+03    0.81541E-04   -0.82597E-04  3972   0.108E-01    0.185E-01
DAV:   5    -0.493685643446E+03    0.50112E-04   -0.26036E-04  3840   0.576E-02    0.963E-02
DAV:   6    -0.493685629599E+03    0.13847E-04   -0.11456E-04  3432   0.395E-02    0.333E-02
DAV:   7    -0.493685632836E+03   -0.32370E-05   -0.50884E-05  2676   0.256E-02
  40 F= -.49368563E+03 E0= -.49368563E+03  d E =-.294613E-02  mag=    -0.0000
       N       E                     dE             d eps       ncg     rms          rms(c)
DAV:   1    -0.493680802880E+03    0.48267E-02   -0.62548E-01  2304   0.219E+00    0.412E-01
DAV:   2    -0.493686251380E+03   -0.54485E-02   -0.57647E-02  3840   0.833E-01    0.240E-01
DAV:   3    -0.493686325016E+03   -0.73636E-04   -0.22081E-03  3828   0.163E-01    0.148E-01
DAV:   4    -0.493686290326E+03    0.34690E-04   -0.37970E-04  3924   0.743E-02    0.123E-01
DAV:   5    -0.493686270190E+03    0.20136E-04   -0.11341E-04  3612   0.390E-02    0.638E-02
DAV:   6    -0.493686264189E+03    0.60001E-05   -0.49292E-05  2628   0.268E-02
  41 F= -.49368626E+03 E0= -.49368626E+03  d E =-.357748E-02  mag=    -0.0000
       N       E                     dE             d eps       ncg     rms          rms(c)
DAV:   1    -0.493683109621E+03    0.31606E-02   -0.65844E-01  2304   0.217E+00    0.416E-01
DAV:   2    -0.493688180288E+03   -0.50707E-02   -0.52930E-02  3876   0.798E-01    0.223E-01
DAV:   3    -0.493688239027E+03   -0.58739E-04   -0.19175E-03  4128   0.138E-01    0.153E-01
DAV:   4    -0.493688190242E+03    0.48785E-04   -0.26307E-04  3948   0.596E-02    0.113E-01
DAV:   5    -0.493688167864E+03    0.22379E-04   -0.90917E-05  3468   0.342E-02    0.567E-02
DAV:   6    -0.493688162045E+03    0.58186E-05   -0.37944E-05  2280   0.223E-02
  42 F= -.49368816E+03 E0= -.49368816E+03  d E =-.189786E-02  mag=     0.0000
       N       E                     dE             d eps       ncg     rms          rms(c)
DAV:   1    -0.493684332170E+03    0.38357E-02   -0.65117E-01  2304   0.216E+00    0.417E-01
DAV:   2    -0.493689382304E+03   -0.50501E-02   -0.52733E-02  3864   0.801E-01    0.222E-01
DAV:   3    -0.493689443288E+03   -0.60984E-04   -0.19038E-03  4116   0.137E-01    0.150E-01
DAV:   4    -0.493689395773E+03    0.47515E-04   -0.27315E-04  4044   0.596E-02    0.111E-01
DAV:   5    -0.493689375814E+03    0.19959E-04   -0.87936E-05  3480   0.333E-02    0.571E-02
DAV:   6    -0.493689369767E+03    0.60468E-05   -0.38961E-05  2328   0.227E-02
  43 F= -.49368937E+03 E0= -.49368937E+03  d E =-.310558E-02  mag=     0.0000
       N       E                     dE             d eps       ncg     rms          rms(c)
DAV:   1    -0.493669681282E+03    0.19695E-01   -0.26057E+00  2304   0.431E+00    0.826E-01
DAV:   2    -0.493689835449E+03   -0.20154E-01   -0.21016E-01  3852   0.159E+00    0.448E-01
DAV:   3    -0.493690070020E+03   -0.23457E-03   -0.76576E-03  4152   0.274E-01    0.308E-01
DAV:   4    -0.493689871975E+03    0.19804E-03   -0.10938E-03  4068   0.117E-01    0.227E-01
DAV:   5    -0.493689785697E+03    0.86277E-04   -0.37160E-04  3708   0.667E-02    0.114E-01
DAV:   6    -0.493689762440E+03    0.23257E-04   -0.18342E-04  3804   0.450E-02    0.406E-02
DAV:   7    -0.493689770231E+03   -0.77916E-05   -0.76966E-05  3096   0.271E-02
  44 F= -.49368977E+03 E0= -.49368977E+03  d E =-.350604E-02  mag=    -0.0000
       N       E                     dE             d eps       ncg     rms          rms(c)
DAV:   1    -0.493686878938E+03    0.28835E-02   -0.40265E-01  2352   0.170E+00    0.303E-01
DAV:   2    -0.493689969301E+03   -0.30904E-02   -0.32191E-02  3816   0.624E-01    0.188E-01
DAV:   3    -0.493689998683E+03   -0.29382E-04   -0.11593E-03  4128   0.109E-01    0.132E-01
DAV:   4    -0.493689962098E+03    0.36585E-04   -0.14758E-04  3756   0.450E-02    0.985E-02
DAV:   5    -0.493689940595E+03    0.21503E-04   -0.63464E-05  3048   0.291E-02    0.482E-02
DAV:   6    -0.493689936808E+03    0.37868E-05   -0.28132E-05  2160   0.180E-02
  45 F= -.49368994E+03 E0= -.49368994E+03  d E =-.367262E-02  mag=     0.0000
       N       E                     dE             d eps       ncg     rms          rms(c)
DAV:   1    -0.493685196216E+03    0.47444E-02   -0.86057E-01  2304   0.247E+00    0.476E-01
DAV:   2    -0.493691885581E+03   -0.66894E-02   -0.69896E-02  3744   0.910E-01    0.269E-01
DAV:   3    -0.493691970327E+03   -0.84746E-04   -0.25822E-03  3948   0.163E-01    0.182E-01
DAV:   4    -0.493691905461E+03    0.64866E-04   -0.39829E-04  4284   0.721E-02    0.138E-01
DAV:   5    -0.493691873922E+03    0.31539E-04   -0.10940E-04  3624   0.347E-02    0.783E-02
DAV:   6    -0.493691861310E+03    0.12612E-04   -0.69179E-05  2820   0.275E-02    0.270E-02
DAV:   7    -0.493691863557E+03   -0.22468E-05   -0.24898E-05  1848   0.168E-02
  46 F= -.49369186E+03 E0= -.49369186E+03  d E =-.192675E-02  mag=     0.0000
       N       E                     dE             d eps       ncg     rms          rms(c)
DAV:   1    -0.493675949957E+03    0.15911E-01   -0.22230E+00  2304   0.398E+00    0.785E-01
DAV:   2    -0.493693198805E+03   -0.17249E-01   -0.18053E-01  3732   0.146E+00    0.421E-01
DAV:   3    -0.493693466203E+03   -0.26740E-03   -0.70262E-03  3960   0.269E-01    0.277E-01
DAV:   4    -0.493693325846E+03    0.14036E-03   -0.11312E-03  4380   0.120E-01    0.211E-01
DAV:   5    -0.493693256339E+03    0.69507E-04   -0.29578E-04  3900   0.554E-02    0.120E-01
DAV:   6    -0.493693226161E+03    0.30178E-04   -0.16619E-04  3480   0.436E-02    0.402E-02
DAV:   7    -0.493693232483E+03   -0.63221E-05   -0.80779E-05  3120   0.262E-02
  47 F= -.49369323E+03 E0= -.49369323E+03  d E =-.329568E-02  mag=    -0.0000
       N       E                     dE             d eps       ncg     rms          rms(c)
DAV:   1    -0.493685091736E+03    0.81344E-02   -0.13647E+00  2304   0.310E+00    0.651E-01
DAV:   2    -0.493695453873E+03   -0.10362E-01   -0.10874E-01  3732   0.113E+00    0.343E-01
DAV:   3    -0.493695589710E+03   -0.13584E-03   -0.42047E-03  3960   0.215E-01    0.219E-01
DAV:   4    -0.493695496196E+03    0.93514E-04   -0.61624E-04  4392   0.926E-02    0.171E-01
DAV:   5    -0.493695443327E+03    0.52869E-04   -0.17673E-04  3900   0.442E-02    0.971E-02
DAV:   6    -0.493695422818E+03    0.20509E-04   -0.10460E-04  3228   0.349E-02    0.311E-02
DAV:   7    -0.493695426175E+03   -0.33571E-05   -0.46833E-05  2628   0.217E-02
  48 F= -.49369543E+03 E0= -.49369543E+03  d E =-.219369E-02  mag=    -0.0000
       N       E                     dE             d eps       ncg     rms          rms(c)
DAV:   1    -0.493686131888E+03    0.92909E-02   -0.13272E+00  2304   0.306E+00    0.644E-01
DAV:   2    -0.493696199205E+03   -0.10067E-01   -0.10564E-01  3696   0.111E+00    0.340E-01
DAV:   3    -0.493696330733E+03   -0.13153E-03   -0.40735E-03  3960   0.211E-01    0.217E-01
DAV:   4    -0.493696236642E+03    0.94092E-04   -0.60587E-04  4464   0.915E-02    0.169E-01
DAV:   5    -0.493696188131E+03    0.48510E-04   -0.17249E-04  3972   0.429E-02    0.963E-02
DAV:   6    -0.493696167764E+03    0.20367E-04   -0.10242E-04  3132   0.350E-02    0.299E-02
DAV:   7    -0.493696170793E+03   -0.30290E-05   -0.44941E-05  2616   0.218E-02
  49 F= -.49369617E+03 E0= -.49369617E+03  d E =-.293831E-02  mag=    -0.0000
       N       E                     dE             d eps       ncg     rms          rms(c)
DAV:   1    -0.493686485844E+03    0.96819E-02   -0.14872E+00  2304   0.328E+00    0.649E-01
DAV:   2    -0.493698017275E+03   -0.11531E-01   -0.11968E-01  3768   0.116E+00    0.336E-01
DAV:   3    -0.493698126960E+03   -0.10968E-03   -0.40006E-03  3960   0.205E-01    0.227E-01
DAV:   4    -0.493698026248E+03    0.10071E-03   -0.59511E-04  4476   0.866E-02    0.168E-01
DAV:   5    -0.493697961230E+03    0.65019E-04   -0.17626E-04  3540   0.461E-02    0.864E-02
DAV:   6    -0.493697951376E+03    0.98532E-05   -0.10048E-04  3516   0.312E-02    0.326E-02
DAV:   7    -0.493697954258E+03   -0.28815E-05   -0.29277E-05  2064   0.188E-02
  50 F= -.49369795E+03 E0= -.49369795E+03  d E =-.178346E-02  mag=    -0.0000
       N       E                     dE             d eps       ncg     rms          rms(c)
DAV:   1    -0.493695053795E+03    0.28976E-02   -0.43653E-01  2304   0.178E+00    0.359E-01
DAV:   2    -0.493698443460E+03   -0.33897E-02   -0.35191E-02  3708   0.639E-01    0.178E-01
DAV:   3    -0.493698482163E+03   -0.38703E-04   -0.12140E-03  3948   0.113E-01    0.118E-01
DAV:   4    -0.493698453505E+03    0.28658E-04   -0.18539E-04  4380   0.478E-02    0.862E-02
DAV:   5    -0.493698437582E+03    0.15923E-04   -0.46984E-05  2760   0.245E-02    0.454E-02
DAV:   6    -0.493698433702E+03    0.38802E-05   -0.21661E-05  1800   0.181E-02
  51 F= -.49369843E+03 E0= -.49369843E+03  d E =-.226291E-02  mag=     0.0000
       N       E                     dE             d eps       ncg     rms          rms(c)
DAV:   1    -0.493684953534E+03    0.13484E-01   -0.17413E+00  2304   0.355E+00    0.697E-01
DAV:   2    -0.493698437113E+03   -0.13484E-01   -0.14001E-01  3756   0.126E+00    0.364E-01
DAV:   3    -0.493698576814E+03   -0.13970E-03   -0.47191E-03  3936   0.222E-01    0.244E-01
DAV:   4    -0.493698456873E+03    0.11994E-03   -0.71348E-04  4488   0.949E-02    0.179E-01
DAV:   5    -0.493698386518E+03    0.70355E-04   -0.20950E-04  3636   0.494E-02    0.924E-02
DAV:   6    -0.493698375426E+03    0.11092E-04   -0.11426E-04  3660   0.339E-02    0.347E-02
DAV:   7    -0.493698378871E+03   -0.34454E-05   -0.39761E-05  2412   0.203E-02
  52 F= -.49369838E+03 E0= -.49369838E+03  d E =-.220808E-02  mag=    -0.0000
       N       E                     dE             d eps       ncg     rms          rms(c)
DAV:   1    -0.493694911103E+03    0.34643E-02   -0.47879E-01  2304   0.186E+00    0.346E-01
DAV:   2    -0.493698616855E+03   -0.37058E-02   -0.38423E-02  3720   0.665E-01    0.200E-01
DAV:   3    -0.493698645668E+03   -0.28813E-04   -0.12590E-03  3948   0.116E-01    0.138E-01
DAV:   4    -0.493698608467E+03    0.37201E-04   -0.17514E-04  4176   0.480E-02    0.105E-01
DAV:   5    -0.493698579699E+03    0.28768E-04   -0.61141E-05  2916   0.283E-02    0.524E-02
DAV:   6    -0.493698575385E+03    0.43135E-05   -0.30786E-05  2112   0.193E-02
  53 F= -.49369858E+03 E0= -.49369858E+03  d E =-.240459E-02  mag=     0.0000
       N       E                     dE             d eps       ncg     rms          rms(c)
DAV:   1    -0.493691037038E+03    0.75427E-02   -0.10750E+00  2304   0.286E+00    0.532E-01
DAV:   2    -0.493699904305E+03   -0.88673E-02   -0.93034E-02  3696   0.104E+00    0.300E-01
DAV:   3    -0.493700001504E+03   -0.97199E-04   -0.32298E-03  3888   0.187E-01    0.206E-01
DAV:   4    -0.493699917317E+03    0.84187E-04   -0.46463E-04  4428   0.809E-02    0.161E-01
DAV:   5    -0.493699877011E+03    0.40306E-04   -0.11352E-04  3444   0.346E-02    0.103E-01
DAV:   6    -0.493699845246E+03    0.31766E-04   -0.10945E-04  3096   0.382E-02    0.333E-02
DAV:   7    -0.493699850467E+03   -0.52216E-05   -0.57888E-05  2796   0.211E-02
  54 F= -.49369985E+03 E0= -.49369985E+03  d E =-.127508E-02  mag=    -0.0000
       N       E                     dE             d eps       ncg     rms          rms(c)
DAV:   1    -0.493697482422E+03    0.23628E-02   -0.30682E-01  2304   0.153E+00    0.300E-01
DAV:   2    -0.493700033894E+03   -0.25515E-02   -0.26871E-02  3696   0.560E-01    0.154E-01
DAV:   3    -0.493700069802E+03   -0.35908E-04   -0.95304E-04  3888   0.101E-01    0.102E-01
DAV:   4    -0.493700049660E+03    0.20142E-04   -0.14234E-04  4128   0.442E-02    0.798E-02
DAV:   5    -0.493700040887E+03    0.87730E-05   -0.24314E-05  2064   0.196E-02
  55 F= -.49370004E+03 E0= -.49370004E+03  d E =-.146550E-02  mag=     0.0000
       N       E                     dE             d eps       ncg     rms          rms(c)
DAV:   1    -0.493694343524E+03    0.57061E-02   -0.75642E-01  2304   0.246E+00    0.452E-01
DAV:   2    -0.493701039090E+03   -0.66956E-02   -0.70083E-02  3648   0.897E-01    0.257E-01
DAV:   3    -0.493701135916E+03   -0.96826E-04   -0.25733E-03  3936   0.171E-01    0.169E-01
DAV:   4    -0.493701085562E+03    0.50354E-04   -0.36615E-04  4284   0.735E-02    0.133E-01
DAV:   5    -0.493701050902E+03    0.34660E-04   -0.10800E-04  3396   0.367E-02    0.723E-02
DAV:   6    -0.493701043643E+03    0.72585E-05   -0.67223E-05  2880   0.289E-02
  56 F= -.49370104E+03 E0= -.49370104E+03  d E =-.100276E-02  mag=    -0.0000
       N       E                     dE             d eps       ncg     rms          rms(c)
DAV:   1    -0.493700272202E+03    0.77870E-03   -0.99879E-02  2328   0.892E-01    0.178E-01
DAV:   2    -0.493701167044E+03   -0.89484E-03   -0.93939E-03  3624   0.333E-01    0.923E-02
DAV:   3    -0.493701182185E+03   -0.15142E-04   -0.35197E-04  3960   0.632E-02    0.571E-02
DAV:   4    -0.493701174922E+03    0.72631E-05   -0.36107E-05  2688   0.283E-02
  57 F= -.49370117E+03 E0= -.49370117E+03  d E =-.113403E-02  mag=    -0.0000
       N       E                     dE             d eps       ncg     rms          rms(c)
DAV:   1    -0.493698232020E+03    0.29502E-02   -0.47951E-01  2304   0.189E+00    0.368E-01
DAV:   2    -0.493701979338E+03   -0.37473E-02   -0.39654E-02  3768   0.705E-01    0.232E-01
DAV:   3    -0.493702014589E+03   -0.35252E-04   -0.15968E-03  3816   0.137E-01    0.144E-01
DAV:   4    -0.493701982987E+03    0.31602E-04   -0.26533E-04  4272   0.651E-02    0.117E-01
DAV:   5    -0.493701952055E+03    0.30932E-04   -0.82885E-05  3132   0.324E-02    0.610E-02
DAV:   6    -0.493701948592E+03    0.34627E-05   -0.55198E-05  2808   0.243E-02
  58 F= -.49370195E+03 E0= -.49370195E+03  d E =-.773670E-03  mag=    -0.0000
       N       E                     dE             d eps       ncg     rms          rms(c)
DAV:   1    -0.493701860105E+03    0.91950E-04   -0.18406E-02  2400   0.368E-01    0.871E-02
DAV:   2    -0.493702011398E+03   -0.15129E-03   -0.16177E-03  3768   0.143E-01    0.435E-02
DAV:   3    -0.493702013133E+03   -0.17346E-05   -0.56303E-05  2964   0.266E-02
  59 F= -.49370201E+03 E0= -.49370201E+03  d E =-.838211E-03  mag=     0.0000
       N       E                     dE             d eps       ncg     rms          rms(c)
DAV:   1    -0.493699525515E+03    0.24859E-02   -0.32086E-01  2304   0.166E+00    0.295E-01
DAV:   2    -0.493702593446E+03   -0.30679E-02   -0.32443E-02  3768   0.619E-01    0.179E-01
DAV:   3    -0.493702625446E+03   -0.32000E-04   -0.11813E-03  3912   0.114E-01    0.118E-01
DAV:   4    -0.493702598746E+03    0.26700E-04   -0.18404E-04  4128   0.535E-02    0.970E-02
DAV:   5    -0.493702582090E+03    0.16657E-04   -0.39466E-05  2568   0.236E-02    0.613E-02
DAV:   6    -0.493702572381E+03    0.97090E-05   -0.51962E-05  2688   0.272E-02
  60 F= -.49370257E+03 E0= -.49370257E+03  d E =-.559248E-03  mag=     0.0000
       N       E                     dE             d eps       ncg     rms          rms(c)
DAV:   1    -0.493702296206E+03    0.28588E-03   -0.32666E-02  2376   0.529E-01    0.105E-01
DAV:   2    -0.493702618944E+03   -0.32274E-03   -0.34367E-03  3768   0.206E-01    0.545E-02
DAV:   3    -0.493702624062E+03   -0.51177E-05   -0.12690E-04  3648   0.369E-02    0.328E-02
DAV:   4    -0.493702621167E+03    0.28944E-05   -0.11409E-05  1896   0.194E-02
  61 F= -.49370262E+03 E0= -.49370262E+03  d E =-.608034E-03  mag=    -0.0000
       N       E                     dE             d eps       ncg     rms          rms(c)
DAV:   1    -0.493701545060E+03    0.10790E-02   -0.20277E-01  2304   0.118E+00    0.232E-01
DAV:   2    -0.493702973078E+03   -0.14280E-02   -0.14914E-02  3780   0.427E-01    0.130E-01
DAV:   3    -0.493702985361E+03   -0.12282E-04   -0.54656E-04  3984   0.732E-02    0.903E-02
DAV:   4    -0.493702968183E+03    0.17178E-04   -0.57555E-05  3024   0.310E-02    0.686E-02
DAV:   5    -0.493702956102E+03    0.12081E-04   -0.33435E-05  1980   0.233E-02    0.332E-02
DAV:   6    -0.493702955463E+03    0.63940E-06   -0.27431E-05  1872   0.202E-02
  62 F= -.49370296E+03 E0= -.49370296E+03  d E =-.334295E-03  mag=     0.0000
       N       E                     dE             d eps       ncg     rms          rms(c)
DAV:   1    -0.493699202319E+03    0.37538E-02   -0.55149E-01  2304   0.194E+00    0.399E-01
DAV:   2    -0.493703080223E+03   -0.38779E-02   -0.40545E-02  3816   0.701E-01    0.205E-01
DAV:   3    -0.493703115786E+03   -0.35562E-04   -0.14452E-03  3912   0.120E-01    0.140E-01
DAV:   4    -0.493703080241E+03    0.35545E-04   -0.22315E-04  4344   0.517E-02    0.102E-01
DAV:   5    -0.493703053165E+03    0.27076E-04   -0.69355E-05  2928   0.281E-02    0.509E-02
DAV:   6    -0.493703050524E+03    0.26409E-05   -0.39367E-05  2292   0.199E-02
  63 F= -.49370305E+03 E0= -.49370305E+03  d E =-.429356E-03  mag=     0.0000
       N       E                     dE             d eps       ncg     rms          rms(c)
DAV:   1    -0.493702362201E+03    0.69096E-03   -0.55860E-02  2376   0.815E-01    0.171E-01
DAV:   2    -0.493703289752E+03   -0.92755E-03   -0.10301E-02  3864   0.335E-01    0.120E-01
DAV:   3    -0.493703296404E+03   -0.66519E-05   -0.43429E-04  3528   0.742E-02    0.696E-02
DAV:   4    -0.493703286741E+03    0.96630E-05   -0.64696E-05  3000   0.380E-02
  64 F= -.49370329E+03 E0= -.49370329E+03  d E =-.236217E-03  mag=    -0.0000
       N       E                     dE             d eps       ncg     rms          rms(c)
DAV:   1    -0.493703281273E+03    0.15130E-04   -0.10815E-04  2952   0.342E-02    0.411E-02
DAV:   2    -0.493703280009E+03    0.12644E-05   -0.19799E-05  2112   0.191E-02
  65 F= -.49370328E+03 E0= -.49370328E+03  d E =-.229485E-03  mag=     0.0000
       N       E                     dE             d eps       ncg     rms          rms(c)
DAV:   1    -0.493702903367E+03    0.37791E-03   -0.42459E-02  2328   0.654E-01    0.136E-01
DAV:   2    -0.493703450380E+03   -0.54701E-03   -0.58018E-03  3840   0.261E-01    0.707E-02
DAV:   3    -0.493703451522E+03   -0.11421E-05   -0.19506E-04  3732   0.495E-02    0.439E-02
DAV:   4    -0.493703445340E+03    0.61818E-05   -0.23316E-05  2184   0.250E-02
  66 F= -.49370345E+03 E0= -.49370345E+03  d E =-.165331E-03  mag=     0.0000
       N       E                     dE             d eps       ncg     rms          rms(c)
DAV:   1    -0.493703235047E+03    0.21647E-03   -0.17091E-02  2328   0.419E-01    0.854E-02
DAV:   2    -0.493703464512E+03   -0.22946E-03   -0.24494E-03  4008   0.168E-01    0.504E-02
DAV:   3    -0.493703464723E+03   -0.21060E-06   -0.77365E-05  3300   0.296E-02
  67 F= -.49370346E+03 E0= -.49370346E+03  d E =-.184714E-03  mag=     0.0000
       N       E                     dE             d eps       ncg     rms          rms(c)
DAV:   1    -0.493703063461E+03    0.40105E-03   -0.50399E-02  2304   0.668E-01    0.129E-01
DAV:   2    -0.493703585808E+03   -0.52235E-03   -0.55618E-03  3840   0.262E-01    0.817E-02
DAV:   3    -0.493703588722E+03   -0.29133E-05   -0.20955E-04  3756   0.496E-02    0.527E-02
DAV:   4    -0.493703581591E+03    0.71312E-05   -0.24092E-05  2208   0.241E-02
  68 F= -.49370358E+03 E0= -.49370358E+03  d E =-.116868E-03  mag=     0.0000
       N       E                     dE             d eps       ncg     rms          rms(c)
DAV:   1    -0.493703369441E+03    0.21928E-03   -0.20150E-02  2352   0.426E-01    0.796E-02
DAV:   2    -0.493703586183E+03   -0.21674E-03   -0.23288E-03  3852   0.167E-01    0.576E-02
DAV:   3    -0.493703587573E+03   -0.13900E-05   -0.84569E-05  3372   0.306E-02
  69 F= -.49370359E+03 E0= -.49370359E+03  d E =-.122850E-03  mag=     0.0000
       N       E                     dE             d eps       ncg     rms          rms(c)
DAV:   1    -0.493703017777E+03    0.56841E-03   -0.40652E-02  2304   0.695E-01    0.158E-01
DAV:   2    -0.493703661796E+03   -0.64402E-03   -0.73220E-03  3660   0.295E-01    0.114E-01
DAV:   3    -0.493703673990E+03   -0.12193E-04   -0.42646E-04  3144   0.766E-02    0.533E-02
DAV:   4    -0.493703670231E+03    0.37586E-05   -0.67354E-05  2928   0.390E-02
  70 F= -.49370367E+03 E0= -.49370367E+03  d E =-.826581E-04  mag=     0.0000
       N       E                     dE             d eps       ncg     rms          rms(c)
DAV:   1    -0.493703636279E+03    0.37711E-04   -0.30382E-03  2424   0.188E-01    0.546E-02
DAV:   2    -0.493703682745E+03   -0.46466E-04   -0.54518E-04  3612   0.805E-02    0.232E-02
DAV:   3    -0.493703683256E+03   -0.51082E-06   -0.33763E-05  2100   0.262E-02
  71 F= -.49370368E+03 E0= -.49370368E+03  d E =-.956828E-04  mag=     0.0000
